 Gaussian 16, Revision A.03,
 Gaussian 16:  ES64L-G16RevA.03 25-Dec-2016

 ----------------------------------------------------------------------
 # opt=maxcycles=200 freq=noraman m062x geom=connectivity def2tzvpp emp
 iricaldispersion=gd3
 ----------------------------------------------------------------------

 -------
 Benzene
 -------
 Symbolic Z-matrix:
 Charge =  0 Multiplicity = 1

 SCF Done:  E(RM062X) =  -232.225733498     A.U. after   11 cycles
 SCF Done:  E(RM062X) =  -232.227189623     A.U. after    9 cycles
 SCF Done:  E(RM062X) =  -232.227201096     A.U. after    6 cycles
 Optimization completed.
    -- Stationary point found.
 Normal termination of Gaussian 16 at Fri Jan  4 17:33:58 2019.

 ---------------------------------------------------------------------
 #N Geom=AllCheck Guess=TCheck SCRF=Check GenChk RM062X/def2TZVPP Freq
 ---------------------------------------------------------------------

 Structure from the checkpoint file:  "Inaawsadcnloang.chk"
 -------
 Benzene
 -------
 Charge =  0 Multiplicity = 1

                         Standard orientation:
 ---------------------------------------------------------------------
 Center     Atomic      Atomic             Coordinates (Angstroms)
 Number     Number       Type             X           Y           Z
 ---------------------------------------------------------------------
      1          6           0       -0.347635   -1.344283    0.000001
      2          6           0        0.990447   -0.973144    0.000006
      3          6           0        1.338042    0.371078    0.000002
      4          6           0        0.347571    1.344299    0.000001
      5          6           0       -0.990401    0.973190    0.000000
      6          6           0       -1.338024   -0.371141   -0.000004
      7          1           0       -0.618403   -2.391648   -0.000005
      8          1           0        1.762015   -1.731416   -0.000013
      9          1           0        2.380461    0.660308   -0.000019
     10          1           0        0.618479    2.391628   -0.000007
     11          1           0       -1.762068    1.731362    0.000005
     12          1           0       -2.380482   -0.660234    0.000002
 ---------------------------------------------------------------------

 SCF Done:  E(RM062X) =  -232.227201096     A.U. after    1 cycles

 The electronic state is 1-A.
 Alpha  occ. eigenvalues --  -10.54194 -10.54159 -10.54159 -10.54077 -10.54076
 Alpha  occ. eigenvalues --  -10.54037  -0.96135  -0.84373  -0.84372  -0.68641
 Alpha  occ. eigenvalues --   -0.68640  -0.60199  -0.53325  -0.51413  -0.48884
 Alpha  occ. eigenvalues --   -0.48882  -0.44144  -0.40273  -0.40272  -0.30932
 Alpha  occ. eigenvalues --   -0.30930
 Alpha virt. eigenvalues --    0.02282   0.02283   0.08257   0.11329   0.11330
 Alpha virt. eigenvalues --    0.13877   0.13877   0.15501   0.17825   0.19266
 Alpha virt. eigenvalues --    0.24073   0.24449   0.24874   0.24874   0.26201

 Mulliken charges:
               1
     1  C   -0.127940
     2  C   -0.127777
     3  C   -0.127916
     4  C   -0.127938
     5  C   -0.127775
     6  C   -0.127917
     7  H    0.127869
     8  H    0.127880
     9  H    0.127883
    10  H    0.127869
    11  H    0.127879
    12  H    0.127883
 Sum of Mulliken charges =  -0.00000

 Dipole moment (field-independent basis, Debye):
    X=              0.0000    Y=              0.0000    Z=             -0.0000  Tot=              0.0000
 Quadrupole moment (field-independent basis, Debye-Ang):
   XX=            -31.8572   YY=            -31.8579   ZZ=            -39.9147
   XY=              0.0003   XZ=             -0.0001   YZ=              0.0000

  Exact polarizability:  77.048  -0.005  77.026   0.000  -0.000  39.173
 Approx polarizability: 101.177  -0.000 101.175   0.000  -0.000  52.006

                      1                      2                      3
                      A                      A                      A
 Frequencies --    413.5004               413.9281               620.1868
 Red. masses --      2.8346                 2.8435                 6.0390
 Frc consts  --      0.2856                 0.2871                 1.3686
 IR Inten    --      0.0018                 0.0001                 0.0000

                      4                      5                      6
                      A                      A                      A
 Frequencies --    620.8187               695.9032               733.5717
 Red. masses --      6.0525                 1.0849                 3.3317
 Frc consts  --      1.3744                 0.3095                 1.0563
 IR Inten    --      0.0000               112.9411                 0.0000

                      7                      8                      9
                      A                      A                      A
 Frequencies --    881.2289               884.2077              1012.0113
 Red. masses --      1.2479                 1.2479                 1.3836
 Frc consts  --      0.5710                 0.5748                 0.8349
 IR Inten    --      0.0000                 0.0000                 0.0060

                     10                     11                     12
                      A                      A                      A
 Frequencies --   1013.8222              1021.5723              1032.8428
 Red. masses --      1.3812                 6.5268                 6.0120
 Frc consts  --      0.8365                 4.0132                 3.7786
 IR Inten    --      0.0000                 0.0000                 0.0000

                     13                     14                     15
                      A                      A                      A
 Frequencies --   1044.2328              1073.5220              1073.9346
 Red. masses --      1.2896                 1.6397                 1.6483
 Frc consts  --      0.8285                 1.1134                 1.1201
 IR Inten    --      0.0000                 4.8926                 4.8193

                     16                     17                     18
                      A                      A                      A
 Frequencies --   1167.0031              1200.9637              1202.7464
 Red. masses --      1.1459                 1.1219                 1.1232
 Frc consts  --      0.9195                 0.9534                 0.9574
 IR Inten    --      0.0000                 0.0000                 0.0000

                     19                     20                     21
                      A                      A                      A
 Frequencies --   1325.6671              1383.3909              1526.2759
 Red. masses --      4.9308                 1.2479                 2.1063
 Frc consts  --      5.1055                 1.4071                 2.8909
 IR Inten    --      0.0003                 0.0000                 7.7298

                     22                     23                     24
                      A                      A                      A
 Frequencies --   1527.0806              1668.9296              1669.7453
 Red. masses --      2.0923                 5.6596                 5.7036
 Frc consts  --      2.8747                 9.2877                 9.3691
 IR Inten    --      7.6743                 0.0000                 0.0000

                     25                     26                     27
                      A                      A                      A
 Frequencies --   3198.1403              3207.6502              3208.0524
 Red. masses --      1.0842                 1.0882                 1.0882
 Frc consts  --      6.5335                 6.5970                 6.5986
 IR Inten    --      0.0020                 0.0000                 0.0000

                     28                     29                     30
                      A                      A                      A
 Frequencies --   3222.7012              3223.1440              3232.5073
 Red. masses --      1.0955                 1.0956                 1.0998
 Frc consts  --      6.7038                 6.7058                 6.7710
 IR Inten    --     24.9579                24.8272                 0.0000

 - Thermochemistry -
 -------------------
 Temperature   298.150 Kelvin.  Pressure   1.00000 Atm.
 Atom     1 has atomic number  6 and mass  12.00000

 Molecular mass:    78.04695 amu.
 Principal axes and moments of inertia in atomic units:
                           1         2         3
     Eigenvalues --   313.73913 313.75895 627.49808
           X            0.99974   0.02268  -0.00000
           Y           -0.02268   0.99974   0.00000
           Z            0.00000  -0.00000   1.00000
 This molecule is an asymmetric top.
 Rotational symmetry number  1.
 Rotational temperatures (Kelvin)      0.27607     0.27605     0.13803
 Rotational constants (GHZ):           5.75236     5.75200     2.87609
 Zero-point vibrational energy     266164.8 (Joules/Mol)
                                   63.61492 (Kcal/Mol)
 Warning -- explicit consideration of   3 degrees of freedom as
           vibrations may cause significant error
 Vibrational temperatures:    594.93   595.55   892.31   893.22  1001.25
          (Kelvin)           1055.45  1267.89  1272.18  1456.06  1458.66
                             1469.81  1486.03  1502.42  1544.56  1545.15
                             1679.06  1727.92  1730.48  1907.34  1990.39
                             2195.97  2197.13  2401.22  2402.39  4601.41
                             4615.09  4615.67  4636.75  4637.39  4650.86

 Zero-point correction=                           0.101377 (Hartree/Particle)
 Thermal correction to Energy=                    0.105736
 Thermal correction to Enthalpy=                  0.106680
 Thermal correction to Gibbs Free Energy=         0.073938
 Sum of electronic and zero-point Energies=           -232.125824
 Sum of electronic and thermal Energies=              -232.121465
 Sum of electronic and thermal Enthalpies=            -232.120521
 Sum of electronic and thermal Free Energies=         -232.153263

                     E (Thermal)             CV                S
                      KCal/Mol        Cal/Mol-Kelvin    Cal/Mol-Kelvin
 Total                   66.350             16.934             68.912
 Electronic               0.000              0.000              0.000
 Translational            0.889              2.981             38.979
 Rotational               0.889              2.981             25.627
 Vibrational             64.573             10.972              4.305
 Vibration     1          0.777              1.441              0.914
 Vibration     2          0.778              1.440              0.913
 Vibration     3          0.980              0.989              0.416

 Optimization completed.
    -- Stationary point found.
 Normal termination of Gaussian 16 at Fri Jan  4 17:37:07 2019.
