 Gaussian 09, Revision D.01,
 Gaussian 09:  EM64L-G09RevD.01 24-Apr-2013

 ----------------------------------------------
 #p b3lyp 6-311g(d,p) SCRF(smd,solvent=toluene)
 ----------------------------------------------

 ---------------------------------------------------------------
 single point energy correction with larger basis set in solvent
 ---------------------------------------------------------------
 Symbolic Z-matrix:
 Charge =  0 Multiplicity = 1

                         Standard orientation:
 ---------------------------------------------------------------------
 Center     Atomic      Atomic             Coordinates (Angstroms)
 Number     Number       Type             X           Y           Z
 ---------------------------------------------------------------------
      1          6           0       -0.765318   -0.000004   -0.000003
      2          1           0       -1.164553   -1.005505   -0.177152
      3          1           0       -1.164455    0.349371    0.959382
      4          1           0       -1.164453    0.656233   -0.782203
      5          6           0        0.765318    0.000004    0.000003
      6          1           0        1.164553    1.005590    0.176665
      7          1           0        1.164453   -0.655854    0.782521
      8          1           0        1.164455   -0.349836   -0.959212
 ---------------------------------------------------------------------

 SCF Done:  E(RB3LYP) =  -79.8583990481     A.U. after    7 cycles

 The electronic state is 1-A.
 Alpha  occ. eigenvalues --  -10.15457 -10.15435  -0.74896  -0.61256  -0.43142
 Alpha  occ. eigenvalues --   -0.43142  -0.36619  -0.34070  -0.34069
 Alpha virt. eigenvalues --    0.05205   0.09120   0.10786   0.10786   0.14350
 Alpha virt. eigenvalues --    0.14351   0.22851   0.30149   0.30150   0.33344
 Alpha virt. eigenvalues --    0.33499   0.33501   0.53392   0.57044   0.58591

 Mulliken charges:
               1
     1  C   -0.327913
     2  H    0.109310
     3  H    0.109296
     4  H    0.109306
     5  C   -0.327913
     6  H    0.109311
     7  H    0.109306
     8  H    0.109296
 Sum of Mulliken charges =   0.00000

 Dipole moment (field-independent basis, Debye):
    X=              0.0000    Y=              0.0000    Z=              0.0000  Tot=              0.0000
 Quadrupole moment (field-independent basis, Debye-Ang):
   XX=            -15.6667   YY=            -15.0041   ZZ=            -15.0045
   XY=              0.0002   XZ=              0.0001   YZ=              0.0000

 Normal termination of Gaussian 09 at Wed Aug 30 14:24:38 2017.
