 Gaussian 09, Revision D.01,
 Gaussian 09:  EM64L-G09RevD.01 24-Apr-2013

 ------------------------
 #p B3LYP/6-31G* opt freq
 ------------------------

 --------
 opt freq
 --------
 Symbolic Z-matrix:
 Charge =  0 Multiplicity = 1

 SCF Done:  E(RB3LYP) =  -79.8270694294     A.U. after   10 cycles
 SCF Done:  E(RB3LYP) =  -79.8302843950     A.U. after    9 cycles
 SCF Done:  E(RB3LYP) =  -79.8304096226     A.U. after    6 cycles
 SCF Done:  E(RB3LYP) =  -79.8304209466     A.U. after    6 cycles
 Optimization completed.
    -- Stationary point found.
 Normal termination of Gaussian 09 at Wed Aug 30 14:10:02 2017.

 --------------------------------------------------------------------
 #P Geom=AllCheck Guess=TCheck SCRF=Check GenChk RB3LYP/6-31G(d) Freq
 --------------------------------------------------------------------

 Structure from the checkpoint file:  "/scratch/51394.1.multiway.q/Gau-76741.chk"
 --------
 opt freq
 --------
 Charge =  0 Multiplicity = 1

                         Standard orientation:
 ---------------------------------------------------------------------
 Center     Atomic      Atomic             Coordinates (Angstroms)
 Number     Number       Type             X           Y           Z
 ---------------------------------------------------------------------
      1          6           0        0.765318    0.000004   -0.000003
      2          1           0        1.164553    1.005505   -0.177152
      3          1           0        1.164455   -0.349371    0.959382
      4          1           0        1.164453   -0.656233   -0.782203
      5          6           0       -0.765318   -0.000004    0.000003
      6          1           0       -1.164553   -1.005590    0.176665
      7          1           0       -1.164453    0.655854    0.782521
      8          1           0       -1.164455    0.349836   -0.959212
 ---------------------------------------------------------------------

 SCF Done:  E(RB3LYP) =  -79.8304209466     A.U. after    1 cycles

 The electronic state is 1-A.
 Alpha  occ. eigenvalues --  -10.17241 -10.17220  -0.74737  -0.61195  -0.43005
 Alpha  occ. eigenvalues --   -0.43005  -0.36284  -0.34007  -0.34006
 Alpha virt. eigenvalues --    0.10476   0.15600   0.16365   0.16365   0.19020
 Alpha virt. eigenvalues --    0.19021   0.24250   0.51317   0.54375   0.54376
 Alpha virt. eigenvalues --    0.63683   0.63687   0.66844   0.88293   0.88294

 Mulliken charges:
               1
     1  C   -0.432795
     2  H    0.144267
     3  H    0.144265
     4  H    0.144262
     5  C   -0.432794
     6  H    0.144267
     7  H    0.144262
     8  H    0.144265
 Sum of Mulliken charges =   0.00000

 Dipole moment (field-independent basis, Debye):
    X=              0.0000    Y=              0.0000    Z=              0.0000  Tot=              0.0000
 Quadrupole moment (field-independent basis, Debye-Ang):
   XX=            -15.2306   YY=            -14.7146   ZZ=            -14.7150
   XY=              0.0002   XZ=              0.0000   YZ=              0.0000

  Exact polarizability:  23.941   0.000  22.420   0.000   0.000  22.419
 Approx polarizability:  27.513   0.001  28.754   0.000   0.000  28.753

                      1                      2                      3
                      A                      A                      A
 Frequencies --    313.8806               832.5925               832.9318
 Red. masses --      1.0078                 1.0576                 1.0576
 Frc consts  --      0.0585                 0.4319                 0.4323
 IR Inten    --      0.0000                 4.6672                 4.6736

                      4                      5                      6
                      A                      A                      A
 Frequencies --   1009.7581              1235.9432              1236.1441
 Red. masses --      3.2485                 1.4649                 1.4650
 Frc consts  --      1.9515                 1.3184                 1.3190
 IR Inten    --      0.0000                 0.0000                 0.0000

                      7                      8                      9
                      A                      A                      A
 Frequencies --   1433.6862              1454.4599              1531.8686
 Red. masses --      1.1980                 1.2573                 1.0198
 Frc consts  --      1.4508                 1.5671                 1.4099
 IR Inten    --      0.2596                 0.0000                 0.0000

                     10                     11                     12
                      A                      A                      A
 Frequencies --   1532.2036              1537.4883              1538.0761
 Red. masses --      1.0198                 1.0620                 1.0619
 Frc consts  --      1.4106                 1.4791                 1.4801
 IR Inten    --      0.0000                 7.4699                 7.4608

                     13                     14                     15
                      A                      A                      A
 Frequencies --   3046.9427              3047.8868              3098.2497
 Red. masses --      1.0367                 1.0343                 1.1020
 Frc consts  --      5.6706                 5.6612                 6.2327
 IR Inten    --      0.0000                59.0666                 0.0000

                     16                     17                     18
                      A                      A                      A
 Frequencies --   3098.3518              3122.6100              3122.6885
 Red. masses --      1.1020                 1.1030                 1.1030
 Frc consts  --      6.2330                 6.3368                 6.3372
 IR Inten    --      0.0000                73.8930                73.8748

 - Thermochemistry -
 -------------------
 Temperature   298.150 Kelvin.  Pressure   1.00000 Atm.
 Atom     1 has atomic number  6 and mass  12.00000

 Molecular mass:    30.04695 amu.
 Principal axes and moments of inertia in atomic units:
                           1         2         3
     Eigenvalues --    22.51093  90.73598  90.73673
           X            1.00000   0.00000   0.00000
           Y            0.00000   1.00000   0.00000
           Z            0.00000   0.00000   1.00000
 This molecule is an asymmetric top.
 Rotational symmetry number  1.
 Rotational temperatures (Kelvin)      3.84763     0.95457     0.95456
 Rotational constants (GHZ):          80.17177    19.89003    19.88986
 Zero-point vibrational energy     197537.9 (Joules/Mol)
                                   47.21270 (Kcal/Mol)
 Warning -- explicit consideration of   1 degrees of freedom as
           vibrations may cause significant error
 Vibrational temperatures:    451.60  1197.91  1198.40  1452.81  1778.24
          (Kelvin)           1778.53  2062.75  2092.64  2204.01  2204.50
                             2212.10  2212.95  4383.87  4385.22  4457.68
                             4457.83  4492.73  4492.85

 Zero-point correction=                           0.075238 (Hartree/Particle)
 Thermal correction to Energy=                    0.078707
 Thermal correction to Enthalpy=                  0.079651
 Thermal correction to Gibbs Free Energy=         0.052128
 Sum of electronic and zero-point Energies=            -79.755183
 Sum of electronic and thermal Energies=               -79.751714
 Sum of electronic and thermal Enthalpies=             -79.750770
 Sum of electronic and thermal Free Energies=          -79.778293

                     E (Thermal)             CV                S
                      KCal/Mol        Cal/Mol-Kelvin    Cal/Mol-Kelvin
 Total                   49.389              9.985             57.927
 Electronic               0.000              0.000              0.000
 Translational            0.889              2.981             36.134
 Rotational               0.889              2.981             19.855
 Vibrational             47.612              4.023              1.938
 Vibration     1          0.702              1.647              1.342

 Optimization completed.
    -- Stationary point found.
 Normal termination of Gaussian 09 at Wed Aug 30 14:10:17 2017.
