 Gaussian 09, Revision D.01,
 Gaussian 09:  EM64L-G09RevD.01 24-Apr-2013

 -----------------------
 #p B97D/6-31G* opt freq
 -----------------------

 --------
 opt freq
 --------
 Symbolic Z-matrix:
 Charge =  0 Multiplicity = 1

 SCF Done:  E(RB97D) =  -76.3669703679     A.U. after   11 cycles
 SCF Done:  E(RB97D) =  -76.3680952207     A.U. after   10 cycles
 SCF Done:  E(RB97D) =  -76.3681281356     A.U. after    7 cycles
 Optimization completed.
    -- Stationary point found.
 Normal termination of Gaussian 09 at Thu Mar 17 13:22:29 2016.

 -------------------------------------------------------------------
 #P Geom=AllCheck Guess=TCheck SCRF=Check GenChk RB97D/6-31G(d) Freq
 -------------------------------------------------------------------

 Structure from the checkpoint file:  "H2O.chk"
 --------
 opt freq
 --------
 Charge =  0 Multiplicity = 1

                         Standard orientation:
 ---------------------------------------------------------------------
 Center     Atomic      Atomic             Coordinates (Angstroms)
 Number     Number       Type             X           Y           Z
 ---------------------------------------------------------------------
      1          8           0        0.000000    0.000000    0.120823
      2          1           0        0.000000    0.761688   -0.483292
      3          1           0        0.000000   -0.761688   -0.483292
 ---------------------------------------------------------------------

 SCF Done:  E(RB97D) =  -76.3681281356     A.U. after    1 cycles

 The electronic state is 1-A1.
 Alpha  occ. eigenvalues --  -18.76047  -0.91141  -0.46244  -0.31695  -0.23187
 Alpha virt. eigenvalues --    0.04352   0.12420   0.72264   0.79967   0.84199
 Alpha virt. eigenvalues --    0.85228   1.01181   1.14557   1.65435   1.67354
 Alpha virt. eigenvalues --    1.70629   2.19755   2.48551   3.46088

 Mulliken charges:
               1
     1  O   -0.762700
     2  H    0.381350
     3  H    0.381350
 Sum of Mulliken charges =   0.00000

 Dipole moment (field-independent basis, Debye):
    X=              0.0000    Y=              0.0000    Z=             -2.0726  Tot=              2.0726
 Quadrupole moment (field-independent basis, Debye-Ang):
   XX=             -7.1848   YY=             -4.2905   ZZ=             -5.9544
   XY=              0.0000   XZ=              0.0000   YZ=              0.0000

  Exact polarizability:   2.879   0.000   7.432   0.000   0.000   5.560
 Approx polarizability:   3.377   0.000  10.402   0.000   0.000   7.922

                      1                      2                      3
                     A1                     A1                     B2
 Frequencies --   1694.8284              3644.5363              3778.6962
 Red. masses --      1.0824                 1.0455                 1.0805
 Frc consts  --      1.8318                 8.1816                 9.0901
 IR Inten    --     69.3287                 0.4364                14.8545

 - Thermochemistry -
 -------------------
 Temperature   298.150 Kelvin.  Pressure   1.00000 Atm.
 Atom     1 has atomic number  8 and mass  15.99491

 Molecular mass:    18.01056 amu.
 Principal axes and moments of inertia in atomic units:
                           1         2         3
     Eigenvalues --     2.33296   4.17606   6.50902
           X            0.00000   0.00000   1.00000
           Y            1.00000   0.00000   0.00000
           Z            0.00000   1.00000   0.00000
 This molecule is an asymmetric top.
 Rotational symmetry number  2.
 Rotational temperatures (Kelvin)     37.12617    20.74054    13.30673
 Rotational constants (GHZ):         773.58478   432.16330   277.26766
 Zero-point vibrational energy      54538.1 (Joules/Mol)
                                   13.03492 (Kcal/Mol)
 Vibrational temperatures:   2438.48  5243.67  5436.69
          (Kelvin)

 Zero-point correction=                           0.020772 (Hartree/Particle)
 Thermal correction to Energy=                    0.023607
 Thermal correction to Enthalpy=                  0.024551
 Thermal correction to Gibbs Free Energy=         0.003093
 Sum of electronic and zero-point Energies=            -76.347356
 Sum of electronic and thermal Energies=               -76.344521
 Sum of electronic and thermal Enthalpies=             -76.343577
 Sum of electronic and thermal Free Energies=          -76.365035

                     E (Thermal)             CV                S
                      KCal/Mol        Cal/Mol-Kelvin    Cal/Mol-Kelvin
 Total                   14.814              5.999             45.162
 Electronic               0.000              0.000              0.000
 Translational            0.889              2.981             34.608
 Rotational               0.889              2.981             10.549
 Vibrational             13.036              0.037              0.005

 Optimization completed.
    -- Stationary point found.
 Normal termination of Gaussian 09 at Thu Mar 17 13:22:32 2016.
