 Gaussian 09, Revision D.01,
 Gaussian 09:  EM64L-G09RevD.01 24-Apr-2013

 -----------------------
 #p B97D/6-31G* opt freq
 -----------------------

 --------
 opt freq
 --------
 Symbolic Z-matrix:
 Charge =  0 Multiplicity = 1

 SCF Done:  E(RB97D) =  -326.652952054     A.U. after   15 cycles
 SCF Done:  E(RB97D) =  -326.658768005     A.U. after   14 cycles
 SCF Done:  E(RB97D) =  -326.660497221     A.U. after   14 cycles
 SCF Done:  E(RB97D) =  -326.662436937     A.U. after   15 cycles
 SCF Done:  E(RB97D) =  -326.663237885     A.U. after   16 cycles
 SCF Done:  E(RB97D) =  -326.664612427     A.U. after   13 cycles
 SCF Done:  E(RB97D) =  -326.664837469     A.U. after   12 cycles
 SCF Done:  E(RB97D) =  -326.664872182     A.U. after   12 cycles
 SCF Done:  E(RB97D) =  -326.664890638     A.U. after   12 cycles
 SCF Done:  E(RB97D) =  -326.664899718     A.U. after    9 cycles
 SCF Done:  E(RB97D) =  -326.664901270     A.U. after    8 cycles
 Optimization completed.
    -- Stationary point found.
 Normal termination of Gaussian 09 at Thu Mar 17 13:14:07 2016.

 -------------------------------------------------------------------
 #P Geom=AllCheck Guess=TCheck SCRF=Check GenChk RB97D/6-31G(d) Freq
 -------------------------------------------------------------------

 Structure from the checkpoint file:  "methylaniline.chk"
 --------
 opt freq
 --------
 Charge =  0 Multiplicity = 1

                         Standard orientation:
 ---------------------------------------------------------------------
 Center     Atomic      Atomic             Coordinates (Angstroms)
 Number     Number       Type             X           Y           Z
 ---------------------------------------------------------------------
      1          6           0       -2.838544    0.367793    0.114931
      2          1           0       -3.815123   -0.134383    0.071801
      3          1           0       -2.725960    0.856637    1.104662
      4          1           0       -2.826008    1.155880   -0.655396
      5          7           0       -1.799392   -0.614701   -0.161366
      6          1           0       -2.009452   -1.546238    0.182166
      7          6           0       -0.448350   -0.276682   -0.063658
      8          6           0       -0.006196    1.067446   -0.059950
      9          6           0        0.523820   -1.306983   -0.005514
     10          6           0        1.365232    1.359462   -0.012803
     11          1           0       -0.730465    1.881355   -0.094689
     12          6           0        1.886089   -1.001163    0.046397
     13          1           0        0.192551   -2.349485   -0.007616
     14          6           0        2.322401    0.336217    0.041592
     15          1           0        1.682621    2.404979   -0.012388
     16          1           0        2.613833   -1.814731    0.092691
     17          1           0        3.387041    0.572357    0.082367
 ---------------------------------------------------------------------

 SCF Done:  E(RB97D) =  -326.664901270     A.U. after    1 cycles

 The electronic state is 1-A.
 Alpha  occ. eigenvalues --  -14.02111  -9.94453  -9.94418  -9.90615  -9.90568
 Alpha  occ. eigenvalues --   -9.90284  -9.90107  -9.89683  -0.84749  -0.74941
 Alpha  occ. eigenvalues --   -0.66471  -0.65792  -0.60856  -0.53830  -0.51832
 Alpha  occ. eigenvalues --   -0.46674  -0.43462  -0.41017  -0.38657  -0.38109
 Alpha  occ. eigenvalues --   -0.36046  -0.35795  -0.34037  -0.31186  -0.30057
 Alpha  occ. eigenvalues --   -0.28468  -0.24530  -0.20473  -0.15874
 Alpha virt. eigenvalues --   -0.01409   0.00053   0.06334   0.08055   0.09408
 Alpha virt. eigenvalues --    0.12934   0.13390   0.13514   0.14429   0.15100
 Alpha virt. eigenvalues --    0.17345   0.17518   0.18931   0.23974   0.28072

 Mulliken charges:
               1
     1  C   -0.320001
     2  H    0.158587
     3  H    0.150783
     4  H    0.170307
     5  N   -0.621585
     6  H    0.315133
     7  C    0.337332
     8  C   -0.187014
     9  C   -0.193340
    10  C   -0.144722
    11  H    0.124778
    12  C   -0.140958
    13  H    0.116332
    14  C   -0.142501
    15  H    0.126718
    16  H    0.126990
    17  H    0.123161
 Sum of Mulliken charges =   0.00000

 Dipole moment (field-independent basis, Debye):
    X=             -1.6887    Y=             -0.4365    Z=              0.6826  Tot=              1.8730
 Quadrupole moment (field-independent basis, Debye-Ang):
   XX=            -40.8355   YY=            -42.5988   ZZ=            -51.8182
   XY=              0.8853   XZ=             -1.2195   YZ=             -1.1046

  Exact polarizability: 115.538   1.167  86.713   0.879  -0.698  34.988
 Approx polarizability: 216.653   7.391 176.459   5.641  -1.014  56.733

                      1                      2                      3
                      A                      A                      A
 Frequencies --    100.6668               177.3966               248.0241
 Red. masses --      2.9217                 1.4081                 1.8700
 Frc consts  --      0.0174                 0.0261                 0.0678
 IR Inten    --      1.9782                 1.4432                 1.1245

                      4                      5                      6
                      A                      A                      A
 Frequencies --    250.7448               403.1806               409.0156
 Red. masses --      2.7685                 2.2840                 2.9985
 Frc consts  --      0.1026                 0.2188                 0.2955
 IR Inten    --      3.5592                54.0882                10.0558

                      7                      8                      9
                      A                      A                      A
 Frequencies --    470.1931               508.2592               595.9305
 Red. masses --      2.8636                 2.8104                 2.2422
 Frc consts  --      0.3730                 0.4278                 0.4692
 IR Inten    --     58.2838                 9.5479                41.1449

                     10                     11                     12
                      A                      A                      A
 Frequencies --    616.7943               682.2739               734.7077
 Red. masses --      6.3425                 2.1664                 1.7220
 Frc consts  --      1.4217                 0.5942                 0.5477
 IR Inten    --      0.2793                14.5577                53.2354

                     13                     14                     15
                      A                      A                      A
 Frequencies --    790.5209               794.6020               836.8422
 Red. masses --      1.5976                 2.2151                 1.5054
 Frc consts  --      0.5882                 0.8240                 0.6212
 IR Inten    --      1.1572                 1.2899                 7.4700

                     16                     17                     18
                      A                      A                      A
 Frequencies --    911.2353               939.4179               979.4864
 Red. masses --      1.3097                 1.1938                 5.8543
 Frc consts  --      0.6408                 0.6207                 3.3092
 IR Inten    --      0.0022                 0.1365                 2.3824

                     19                     20                     21
                      A                      A                      A
 Frequencies --   1022.0569              1059.0611              1079.5879
 Red. masses --      2.5453                 2.3450                 1.5923
 Frc consts  --      1.5665                 1.5497                 1.0934
 IR Inten    --      1.3708                 9.8608                 4.9558

                     22                     23                     24
                      A                      A                      A
 Frequencies --   1128.5757              1147.3023              1159.6324
 Red. masses --      1.3195                 1.0952                 1.5767
 Frc consts  --      0.9902                 0.8494                 1.2492
 IR Inten    --     18.2369                 0.7609                 7.0920

                     25                     26                     27
                      A                      A                      A
 Frequencies --   1183.4833              1281.6398              1334.0270
 Red. masses --      1.1575                 2.5570                 1.5937
 Frc consts  --      0.9552                 2.4747                 1.6710
 IR Inten    --      8.9317                62.9407                31.4338

                     28                     29                     30
                      A                      A                      A
 Frequencies --   1356.6799              1438.5636              1451.5478
 Red. masses --      3.8541                 1.5645                 1.3463
 Frc consts  --      4.1795                 1.9076                 1.6713
 IR Inten    --     21.8142                 9.2831                 0.5952

                     31                     32                     33
                      A                      A                      A
 Frequencies --   1467.2831              1501.2049              1510.7658
 Red. masses --      1.0743                 1.4725                 1.3451
 Frc consts  --      1.3627                 1.9551                 1.8088
 IR Inten    --     11.5969                13.9204                 0.0483

                     34                     35                     36
                      A                      A                      A
 Frequencies --   1525.7604              1595.9865              1625.0235
 Red. masses --      1.7880                 4.2255                 5.3362
 Frc consts  --      2.4524                 6.3414                 8.3024
 IR Inten    --    102.6823                 3.9584               115.1753

                     37                     38                     39
                      A                      A                      A
 Frequencies --   2894.9676              2996.1212              3062.5982
 Red. masses --      1.0524                 1.0862                 1.1022
 Frc consts  --      5.1967                 5.7449                 6.0908
 IR Inten    --    100.5406                46.1093                26.4896

                     40                     41                     42
                      A                      A                      A
 Frequencies --   3093.7456              3108.3314              3115.5594
 Red. masses --      1.0867                 1.0865                 1.0927
 Frc consts  --      6.1284                 6.1849                 6.2493
 IR Inten    --     18.9215                 0.7637                44.1923

                     43                     44                     45
                      A                      A                      A
 Frequencies --   3133.5796              3142.7062              3517.6928
 Red. masses --      1.0950                 1.0943                 1.0760
 Frc consts  --      6.3349                 6.3679                 7.8448
 IR Inten    --     44.9598                14.1239                 7.3727

 - Thermochemistry -
 -------------------
 Temperature   298.150 Kelvin.  Pressure   1.00000 Atm.
 Atom     1 has atomic number  6 and mass  12.00000

 Molecular mass:   107.07350 amu.
 Principal axes and moments of inertia in atomic units:
                           1         2         3
     Eigenvalues --   367.929851199.554131550.49818
           X            0.99993  -0.01114  -0.00375
           Y            0.01113   0.99993  -0.00401
           Z            0.00379   0.00396   0.99998
 This molecule is an asymmetric top.
 Rotational symmetry number  1.
 Rotational temperatures (Kelvin)      0.23541     0.07221     0.05586
 Rotational constants (GHZ):           4.90512     1.50451     1.16398
 Zero-point vibrational energy     373131.9 (Joules/Mol)
                                   89.18065 (Kcal/Mol)
 Warning -- explicit consideration of  10 degrees of freedom as
           vibrations may cause significant error
 Vibrational temperatures:    144.84   255.23   356.85   360.77   580.09
          (Kelvin)            588.48   676.50   731.27   857.41   887.43
                              981.64  1057.08  1137.38  1143.25  1204.03
                             1311.06  1351.61  1409.26  1470.51  1523.75
                             1553.28  1623.77  1650.71  1668.45  1702.77
                             1843.99  1919.36  1951.96  2069.77  2088.45
                             2111.09  2159.90  2173.65  2195.23  2296.27
                             2338.04  4165.21  4310.74  4406.39  4451.20
                             4472.19  4482.59  4508.52  4521.65  5061.17

 Zero-point correction=                           0.142118 (Hartree/Particle)
 Thermal correction to Energy=                    0.149468
 Thermal correction to Enthalpy=                  0.150412
 Thermal correction to Gibbs Free Energy=         0.110744
 Sum of electronic and zero-point Energies=           -326.522783
 Sum of electronic and thermal Energies=              -326.515433
 Sum of electronic and thermal Enthalpies=            -326.514489
 Sum of electronic and thermal Free Energies=         -326.554157

                     E (Thermal)             CV                S
                      KCal/Mol        Cal/Mol-Kelvin    Cal/Mol-Kelvin
 Total                   93.793             28.597             83.489
 Electronic               0.000              0.000              0.000
 Translational            0.889              2.981             39.922
 Rotational               0.889              2.981             28.017
 Vibrational             92.015             22.635             15.550
 Vibration     1          0.604              1.949              3.441
 Vibration     2          0.628              1.870              2.356
 Vibration     3          0.662              1.766              1.745
 Vibration     4          0.663              1.762              1.725
 Vibration     5          0.769              1.463              0.951
 Vibration     6          0.773              1.451              0.930
 Vibration     7          0.827              1.316              0.737
 Vibration     8          0.863              1.232              0.638
 Vibration     9          0.954              1.040              0.457
 Vibration    10          0.976              0.996              0.422

 Optimization completed.
    -- Stationary point found.
 Normal termination of Gaussian 09 at Thu Mar 17 13:15:02 2016.
