                         Program Version 4.0.1.2 - RELEASE -
|  1> !CPCM DLPNO-CCSD(T) Extrapolate(2/3,cc)  RIJCOSX GRIDX5 TightSCF KDIIS
|  2> %cpcm
|  3> smd true
|  4> solvent "Ethanol"
|  5> end
|  6> # Number of processors
|  7> %pal nprocs 24 end
|  8> # Memory per core
|  9> %maxcore 4000
| 10> %scf maxiter 500
| 11>     end
| 12> % mdci
| 13>    # Loose cut-off
| 14>    #  TCutPairs 1e-3
| 15>    #  TCutPNO 1e-6
| 16>    #  TCutMKN 1e-3
| 17>    # Normal cut-off
| 18>      TCutPairs 1e-4
| 19>      TCutPNO 3.33e-7
| 20>      TCutMKN 1e-3
| 21>    # Tight cut-off
| 22>    #TCutPairs 1e-5
| 23>    #TCutPNO 1e-7
| 24>    #TCutMKN 1e-4
| 25>    # Faster/less disk-IO for large jobs
| 26>    #LocalTrafo 3
| 27>    Density None
| 28> end
| 29> % output
| 30>    printlevel mini
| 31>    print[ P_SCFInfo ] 1
| 32>    print[ P_SCFIterInfo ] 1
| 33>    print[ P_OrbEn ] 0
| 34>    print[ P_Cartesian ] 0
| 35> end
| 36> % elprop
| 37>    Dipole False
| 38> end
| 39> * xyz 2 1
| 40>  C                 -2.96329300   -0.47124800   -3.02946500
| 41>  C                 -1.77835800    0.07281900   -2.54301800
| 42>  C                 -1.18357200   -0.47441800   -1.39841300
| 43>  C                 -1.79234500   -1.54774200   -0.72990400
| 44>  C                 -2.97465400   -2.08379800   -1.22806100
| 45>  H                 -3.42212500   -0.04733600   -3.91749500
| 46>  H                 -1.33266100    0.92211500   -3.05108200
| 47>  H                 -1.35916100   -1.96533100    0.17455300
| 48>  H                 -3.44269500   -2.91656400   -0.71199900
| 49>  P                  0.27692600    0.32293100   -0.72752900
| 50>  C                  1.68054700   -0.82885600   -0.53380400
| 51>  C                  2.93550100   -0.26202000   -0.28035000
| 52>  C                  1.54797700   -2.21731300   -0.59674200
| 53>  C                  4.01701300   -1.09509600   -0.07219500
| 54>  H                  3.09177000    0.80997600   -0.25106300
| 55>  C                  2.66198700   -3.00570300   -0.38290900
| 56>  H                  0.60631500   -2.70575300   -0.81495100
| 57>  H                  5.01906600   -0.73990700    0.13200000
| 58>  H                  2.64611300   -4.08768900   -0.41399800
| 59>  C                 -0.70661300    0.23540200    1.83455600
| 60>  C                  0.13642900   -0.74432300    2.37711800
| 61>  C                 -2.06479500    0.20143300    2.16184700
| 62>  C                 -0.36965100   -1.74437400    3.20311900
| 63>  H                  1.20204400   -0.73642000    2.16679000
| 64>  C                 -2.57151800   -0.79749600    2.99190600
| 65>  H                 -2.74619000    0.95227300    1.77740200
| 66>  H                  0.30304300   -2.49423500    3.61029600
| 67>  H                 -3.63138100   -0.80582400    3.23089900
| 68>  C                 -3.55840500   -1.54892300   -2.37620400
| 69>  H                 -4.48352500   -1.97024100   -2.75894200
| 70>  O                  0.77963000    1.45517500   -1.72250500
| 71>  C                 -0.14041800    1.28778800    0.87414400
| 72>  C                 -1.12605500    2.32369200    0.39567600
| 73>  C                  1.09950400    1.96383200    1.39993400
| 74>  C                 -0.78477800    3.61619000    0.23109900
| 75>  H                 -2.12201500    2.01327000    0.10144800
| 76>  C                  1.34233000    3.27368400    1.20733100
| 77>  H                  1.82368300    1.37708500    1.95287300
| 78>  H                 -1.48739400    4.34721400   -0.15309200
| 79>  H                  2.23993900    3.75111400    1.58435500
| 80>  C                  1.43498100    1.16573700   -2.98601900
| 81>  H                  1.16961300    1.98857800   -3.64909100
| 82>  H                  2.51369200    1.14177700   -2.82167700
| 83>  H                  1.08990400    0.21814900   -3.40520000
| 84>  N                  3.84288800   -2.42401200   -0.12378900
| 85>  H                  4.65335200   -3.02353500    0.03129000
| 86>  C                 -1.72950000   -1.77937900    3.50810900
| 87>  H                 -2.12682100   -2.56016800    4.15073900
| 88>  N                  0.45582700    4.09783300    0.56014700
| 89>  H                  0.63961200    5.09001000    0.50788200
| 90> *
| 91>                            ****END OF INPUT****
 Total Charge           Charge          ....    2
 Multiplicity           Mult            ....    1
 Number of Electrons    NEL             ....  196
E(0)                                       ...  -1408.658891307
E(0)                                       ...  -1408.658891307
E(CORR)(strong-pairs)                      ...     -3.742466985
E(CORR)(weak-pairs)                        ...     -0.033424475
E(CORR)(corrected)                         ...     -3.775891460
E(TOT)                                     ...  -1412.434782767
 Multiplicity           Mult            ....    1
 Number of Electrons    NEL             ....  196
 Basis Dimension        Dim             .... 1136
E(0)                                       ...  -1408.952115030
E(CORR)(strong-pairs)                      ...     -4.458384786
E(CORR)(weak-pairs)                        ...     -0.043462064
E(CORR)(corrected)                         ...     -4.501846849
E(TOT)                                     ...  -1413.453961880
E(CCSD(T))                                 ...  -1413.677252462
FINAL SINGLE POINT ENERGY     -1414.238512880743
                             ****ORCA TERMINATED NORMALLY****
TOTAL RUN TIME: 0 days 6 hours 31 minutes 11 seconds 753 msec
