 Gaussian 16, Revision A.03,
 Gaussian 16:  ES64L-G16RevA.03 25-Dec-2016

 ----------------------------------------------------------------------
 # wb97xd/6-31+g(d) opt=(maxcycles=200) scrf=(solvent=ethanol,smd) freq
 =noraman geom=connectivity
 ----------------------------------------------------------------------

 -------------------
 Title Card Required
 -------------------
 Symbolic Z-matrix:
 Charge =  2 Multiplicity = 1

 SCF Done:  E(RwB97XD) =  -1415.55884456     A.U. after   16 cycles
 SCF Done:  E(RwB97XD) =  -1415.61560011     A.U. after   19 cycles
 SCF Done:  E(RwB97XD) =  -1415.31623352     A.U. after   19 cycles
 SCF Done:  E(RwB97XD) =  -1415.64509032     A.U. after   17 cycles
 SCF Done:  E(RwB97XD) =  -1415.64956188     A.U. after   15 cycles
 SCF Done:  E(RwB97XD) =  -1415.65411860     A.U. after   16 cycles
 SCF Done:  E(RwB97XD) =  -1415.65524110     A.U. after   18 cycles
 SCF Done:  E(RwB97XD) =  -1415.66271937     A.U. after   18 cycles
 SCF Done:  E(RwB97XD) =  -1415.66881458     A.U. after   15 cycles
 SCF Done:  E(RwB97XD) =  -1415.67336368     A.U. after   15 cycles
 SCF Done:  E(RwB97XD) =  -1415.69737020     A.U. after   12 cycles
 SCF Done:  E(RwB97XD) =  -1415.69737003     A.U. after   12 cycles
 SCF Done:  E(RwB97XD) =  -1415.69737280     A.U. after   11 cycles
 SCF Done:  E(RwB97XD) =  -1415.69737487     A.U. after   11 cycles
 SCF Done:  E(RwB97XD) =  -1415.69737656     A.U. after   11 cycles
 SCF Done:  E(RwB97XD) =  -1415.69738234     A.U. after   13 cycles
 SCF Done:  E(RwB97XD) =  -1415.69738246     A.U. after   11 cycles
 SCF Done:  E(RwB97XD) =  -1415.69738342     A.U. after   10 cycles
 SCF Done:  E(RwB97XD) =  -1415.69738331     A.U. after    9 cycles
 Optimization completed.
    -- Stationary point found.
 Normal termination of Gaussian 16 at Thu Mar 15 16:50:02 2018.

 ----------------------------------------------------------------------
 #N Geom=AllCheck Guess=TCheck SCRF=Check GenChk RwB97XD/6-31+G(d) Freq
 ----------------------------------------------------------------------

 Structure from the checkpoint file:  "Int3_SNdxdjuf.chk"
 -------------------
 Title Card Required
 -------------------
 Charge =  2 Multiplicity = 1

                         Standard orientation:
 ---------------------------------------------------------------------
 Center     Atomic      Atomic             Coordinates (Angstroms)
 Number     Number       Type             X           Y           Z
 ---------------------------------------------------------------------
      1          6           0        0.577375   -2.910716   -2.521348
      2          6           0        0.215174   -1.719559   -1.895243
      3          6           0        0.345716   -1.591701   -0.510227
      4          6           0        0.835273   -2.666836    0.240650
      5          6           0        1.179260   -3.861299   -0.388191
      6          1           0        0.479038   -2.999048   -3.599753
      7          1           0       -0.164829   -0.903790   -2.501385
      8          1           0        0.951917   -2.579164    1.318496
      9          1           0        1.548824   -4.693124    0.204956
     10         15           0       -0.076482   -0.088309    0.459423
     11          6           0        1.873361    0.298436    0.576056
     12          6           0        2.547183    0.547759   -0.631295
     13          6           0        2.646463    0.277439    1.743569
     14          6           0        3.907101    0.756773   -0.653776
     15          1           0        2.018091    0.577147   -1.579509
     16          6           0        4.009948    0.492862    1.685885
     17          1           0        2.197312    0.091801    2.710377
     18          1           0        4.477302    0.950271   -1.553897
     19          1           0        4.658216    0.488890    2.553673
     20          6           0       -1.977998   -0.301808    0.414654
     21          6           0       -2.611781   -1.460662   -0.044487
     22          6           0       -2.788466    0.743557    0.886041
     23          6           0       -4.005107   -1.567772   -0.048610
     24          1           0       -2.030488   -2.305304   -0.401201
     25          6           0       -4.176242    0.641831    0.889169
     26          1           0       -2.336437    1.656525    1.269512
     27          6           0       -4.791866   -0.517601    0.414874
     28          1           0       -4.470913   -2.479079   -0.414853
     29          1           0       -4.777437    1.467184    1.261814
     30          1           0       -5.875466   -0.600313    0.410960
     31          6           0        1.054015   -3.984571   -1.770890
     32          1           0        1.326945   -4.914076   -2.262755
     33          8           0        0.012843   -0.225940    2.090660
     34          6           0       -0.262631    1.570011   -0.418668
     35          6           0        0.195764    2.712661    0.242677
     36          6           0       -0.909929    1.715180   -1.648207
     37          6           0        0.009329    3.954120   -0.330693
     38          1           0        0.692452    2.657205    1.205607
     39          6           0       -1.041103    2.971273   -2.203141
     40          1           0       -1.333221    0.870149   -2.177728
     41          1           0        0.322264    4.883716    0.127728
     42          1           0       -1.511129    3.161566   -3.159881
     43          7           0       -0.584799    4.041634   -1.531097
     44          6           0       -0.939099   -0.836909    2.973109
     45          1           0       -0.379493   -1.046602    3.887467
     46          1           0       -1.761143   -0.152903    3.193988
     47          1           0       -1.328531   -1.771071    2.562582
     48          7           0        4.597588    0.723268    0.501119
     49          1           0        5.602996    0.879788    0.474782
     50          1           0       -0.701749    4.963248   -1.949197
 ---------------------------------------------------------------------

 SCF Done:  E(RwB97XD) =  -1415.69738331     A.U. after    1 cycles

 The electronic state is 1-A.
 Alpha  occ. eigenvalues --  -77.38178 -19.31410 -14.58356 -14.57230 -10.40127
 Alpha  occ. eigenvalues --  -10.40043 -10.39029 -10.38978 -10.37540 -10.35691
 Alpha  occ. eigenvalues --  -10.35675 -10.34871 -10.34790 -10.34193 -10.33855
 Alpha  occ. eigenvalues --  -10.33229 -10.32348 -10.32313 -10.31808 -10.31761
 Alpha  occ. eigenvalues --  -10.31725 -10.31325 -10.31196 -10.31179 -10.31116
 Alpha  occ. eigenvalues --  -10.31049 -10.31026  -6.78939  -4.93998  -4.93837
 Alpha  occ. eigenvalues --   -4.93571  -1.15954  -1.15028  -1.13927  -0.98344
 Alpha  occ. eigenvalues --   -0.97218  -0.96334  -0.94859  -0.92807  -0.91548
 Alpha  occ. eigenvalues --   -0.88632  -0.86256  -0.85570  -0.85126  -0.83489
 Alpha  occ. eigenvalues --   -0.79685  -0.79241  -0.77601  -0.77002  -0.74002
 Alpha  occ. eigenvalues --   -0.71612  -0.71222  -0.70790  -0.70353  -0.69908
 Alpha  occ. eigenvalues --   -0.67803  -0.63871  -0.62592  -0.62384  -0.61809
 Alpha  occ. eigenvalues --   -0.60822  -0.59498  -0.58771  -0.58136  -0.57352
 Alpha  occ. eigenvalues --   -0.56929  -0.56727  -0.55940  -0.55636  -0.55446
 Alpha  occ. eigenvalues --   -0.54971  -0.54459  -0.53740  -0.53188  -0.53133
 Alpha  occ. eigenvalues --   -0.51773  -0.51168  -0.50515  -0.49712  -0.48918
 Alpha  occ. eigenvalues --   -0.47814  -0.47068  -0.46466  -0.45010  -0.44525
 Alpha  occ. eigenvalues --   -0.43761  -0.43331  -0.42823  -0.41309  -0.40235
 Alpha  occ. eigenvalues --   -0.40071  -0.38885  -0.37914  -0.34886  -0.34521
 Alpha  occ. eigenvalues --   -0.33994  -0.33675  -0.33194
 Alpha virt. eigenvalues --   -0.03629  -0.01772   0.00880   0.02072   0.03413
 Alpha virt. eigenvalues --    0.03988   0.04078   0.04657   0.05577   0.05649
 Alpha virt. eigenvalues --    0.05899   0.06606   0.07488   0.08021   0.08208

 Mulliken charges:
               1
     1  C   -0.330849
     2  C   -0.022802
     3  C   -0.352660
     4  C    0.283001
     5  C   -0.455649
     6  H    0.253607
     7  H    0.255600
     8  H    0.272977
     9  H    0.254540
    10  P   -0.670597
    11  C   -0.389994
    12  C    0.284381
    13  C    1.432427
    14  C   -0.725650
    15  H    0.300812
    16  C   -0.809189
    17  H    0.295592
    18  H    0.309056
    19  H    0.309901
    20  C   -0.262913
    21  C    0.157685
    22  C    0.004949
    23  C   -0.320762
    24  H    0.261786
    25  C   -0.432987
    26  H    0.257392
    27  C   -0.157237
    28  H    0.247234
    29  H    0.247555
    30  H    0.248212
    31  C   -0.300101
    32  H    0.254411
    33  O   -0.410257
    34  C   -0.767556
    35  C    1.085231
    36  C    0.901849
    37  C   -0.926967
    38  H    0.318087
    39  C   -0.831157
    40  H    0.306543
    41  H    0.319958
    42  H    0.320245
    43  N   -0.292881
    44  C   -0.282010
    45  H    0.246682
    46  H    0.255719
    47  H    0.265592
    48  N   -0.347881
    49  H    0.566248
    50  H    0.572827
 Sum of Mulliken charges =   2.00000

 Dipole moment (field-independent basis, Debye):
    X=             12.5160    Y=             16.3298    Z=             -3.5831  Tot=             20.8842
 Quadrupole moment (field-independent basis, Debye-Ang):
   XX=            -67.5373   YY=            -70.6959   ZZ=           -118.1408
   XY=              2.3592   XZ=             14.1757   YZ=            -19.9409

  Exact polarizability: 412.521   0.211 423.222  25.030  13.673 398.935
 Approx polarizability: 310.091  -0.643 324.879  21.625   9.875 323.106

                      1                      2                      3
                      A                      A                      A
 Frequencies --     22.7574                32.7226                41.0782
 Red. masses --      3.9468                 4.4904                 5.0658
 Frc consts  --      0.0012                 0.0028                 0.0050
 IR Inten    --      0.6010                 0.8284                 4.3557

                      4                      5                      6
                      A                      A                      A
 Frequencies --     45.1566                59.1403                70.7464
 Red. masses --      4.5861                 4.7474                 4.3023
 Frc consts  --      0.0055                 0.0098                 0.0127
 IR Inten    --      1.8256                 2.7538                 1.8866

                      7                      8                      9
                      A                      A                      A
 Frequencies --     72.4322                80.0998                91.1409
 Red. masses --      3.9410                 4.4086                 3.4527
 Frc consts  --      0.0122                 0.0167                 0.0169
 IR Inten    --      2.2519                 2.9599                 5.4406

                     10                     11                     12
                      A                      A                      A
 Frequencies --    101.8260               155.4867               171.8256
 Red. masses --      4.3547                 3.0580                 3.5969
 Frc consts  --      0.0266                 0.0436                 0.0626
 IR Inten    --      3.3266                 5.2744                 3.1738

                     13                     14                     15
                      A                      A                      A
 Frequencies --    187.5368               197.6895               212.6377
 Red. masses --      5.4090                 5.1594                 1.8994
 Frc consts  --      0.1121                 0.1188                 0.0506
 IR Inten    --      1.1530                 4.1773                 1.1000

                     16                     17                     18
                      A                      A                      A
 Frequencies --    221.5751               229.7944               256.4078
 Red. masses --      2.2344                 5.4145                 4.6357
 Frc consts  --      0.0646                 0.1685                 0.1796
 IR Inten    --      1.1647                 2.6638                 0.5048

                     19                     20                     21
                      A                      A                      A
 Frequencies --    260.1699               268.3754               278.9138
 Red. masses --      5.0112                 4.6550                 4.2326
 Frc consts  --      0.1998                 0.1975                 0.1940
 IR Inten    --      9.4078                 8.7637                 1.0790

                     22                     23                     24
                      A                      A                      A
 Frequencies --    292.2214               361.1384               401.6463
 Red. masses --      4.2486                 5.5786                 3.5093
 Frc consts  --      0.2138                 0.4287                 0.3335
 IR Inten    --      0.9524                26.2270                12.8497

                     25                     26                     27
                      A                      A                      A
 Frequencies --    404.6644               409.4120               411.1988
 Red. masses --      3.8486                 2.8095                 2.9235
 Frc consts  --      0.3713                 0.2775                 0.2912
 IR Inten    --     13.7967                 0.1609                 2.5701

                     28                     29                     30
                      A                      A                      A
 Frequencies --    416.6953               458.0645               468.9499
 Red. masses --      2.9040                 5.3165                 4.9746
 Frc consts  --      0.2971                 0.6572                 0.6446
 IR Inten    --      0.4697               104.7040                10.4611

                     31                     32                     33
                      A                      A                      A
 Frequencies --    529.2998               544.9447               561.5218
 Red. masses --      4.1496                 3.5801                 4.7181
 Frc consts  --      0.6849                 0.6264                 0.8765
 IR Inten    --     29.8179                30.2589               307.1769

                     34                     35                     36
                      A                      A                      A
 Frequencies --    572.3434               634.9092               636.0360
 Red. masses --      4.8999                 6.3949                 6.3887
 Frc consts  --      0.9457                 1.5188                 1.5227
 IR Inten    --    337.5831                 1.0364                 0.3565

                     37                     38                     39
                      A                      A                      A
 Frequencies --    662.8413               663.1509               670.8718
 Red. masses --      6.5420                 6.4879                 6.9138
 Frc consts  --      1.6935                 1.6810                 1.8333
 IR Inten    --      2.9221                 0.1993                18.4279

                     40                     41                     42
                      A                      A                      A
 Frequencies --    681.6413               696.0661               714.2878
 Red. masses --      6.7915                 6.4772                 1.7585
 Frc consts  --      1.8592                 1.8490                 0.5286
 IR Inten    --     18.1774               154.6442                91.1434

                     43                     44                     45
                      A                      A                      A
 Frequencies --    721.7418               727.2379               744.6271
 Red. masses --      1.6222                 4.1521                 4.4278
 Frc consts  --      0.4979                 1.2938                 1.4465
 IR Inten    --    119.4313                88.7450               103.2114

                     46                     47                     48
                      A                      A                      A
 Frequencies --    755.1901               766.7092               767.9437
 Red. masses --      4.2386                 3.1897                 1.2451
 Frc consts  --      1.4243                 1.1048                 0.4326
 IR Inten    --     18.0380               224.9305               152.6611

                     49                     50                     51
                      A                      A                      A
 Frequencies --    775.6369               778.6355               780.7749
 Red. masses --      1.5119                 1.9881                 2.2037
 Frc consts  --      0.5359                 0.7102                 0.7915
 IR Inten    --     83.9553                32.4907                 6.2857

                     52                     53                     54
                      A                      A                      A
 Frequencies --    874.9099               880.7157               894.7342
 Red. masses --      1.2552                 1.2508                 1.2490
 Frc consts  --      0.5661                 0.5716                 0.5891
 IR Inten    --      0.3981                 0.3944                 0.1603

                     55                     56                     57
                      A                      A                      A
 Frequencies --    898.6056               916.0041               929.3600
 Red. masses --      1.2563                 1.3335                 1.3360
 Frc consts  --      0.5977                 0.6592                 0.6799
 IR Inten    --      1.2538                 0.9824                 3.1622

                     58                     59                     60
                      A                      A                      A
 Frequencies --    954.3728               957.1854              1012.3558
 Red. masses --      1.3636                 1.3622                 1.3873
 Frc consts  --      0.7318                 0.7354                 0.8377
 IR Inten    --      0.5063                 0.8213                 0.3199

                     61                     62                     63
                      A                      A                      A
 Frequencies --   1015.1969              1020.5027              1021.7530
 Red. masses --      1.3893                 2.6148                 5.0298
 Frc consts  --      0.8436                 1.6044                 3.0938
 IR Inten    --      0.3852                 1.4845                 1.6308

                     64                     65                     66
                      A                      A                      A
 Frequencies --   1023.9807              1026.3908              1027.7608
 Red. masses --      1.3695                 2.0375                 1.3258
 Frc consts  --      0.8461                 1.2647                 0.8251
 IR Inten    --      1.9226                 8.8198                 1.3278

                     67                     68                     69
                      A                      A                      A
 Frequencies --   1031.2354              1034.3295              1035.4253
 Red. masses --      1.3338                 1.3145                 6.1990
 Frc consts  --      0.8357                 0.8286                 3.9157
 IR Inten    --      2.7811                 0.0595                 2.4104

                     70                     71                     72
                      A                      A                      A
 Frequencies --   1035.9745              1039.8539              1061.4490
 Red. masses --      1.3192                 5.0061                 3.8515
 Frc consts  --      0.8342                 3.1893                 2.5567
 IR Inten    --      0.0762                 2.3619                 0.5683

                     73                     74                     75
                      A                      A                      A
 Frequencies --   1064.3537              1082.2840              1098.0952
 Red. masses --      3.1026                 7.3075                 3.9983
 Frc consts  --      2.0708                 5.0432                 2.8406
 IR Inten    --     11.8137               331.7358                86.5908

                     76                     77                     78
                      A                      A                      A
 Frequencies --   1103.5207              1114.9595              1121.3223
 Red. masses --      3.2952                 2.0523                 2.3258
 Frc consts  --      2.3643                 1.5032                 1.7230
 IR Inten    --     22.2760                31.0894                96.7811

                     79                     80                     81
                      A                      A                      A
 Frequencies --   1128.1889              1128.7977              1136.7582
 Red. masses --      1.6968                 1.6848                 2.4008
 Frc consts  --      1.2724                 1.2648                 1.8279
 IR Inten    --      6.8719                 4.3630                65.5017

                     82                     83                     84
                      A                      A                      A
 Frequencies --   1144.3051              1147.5010              1153.9682
 Red. masses --      2.7951                 1.6679                 1.6217
 Frc consts  --      2.1564                 1.2940                 1.2723
 IR Inten    --     77.8090                 6.1456                 4.0828

                     85                     86                     87
                      A                      A                      A
 Frequencies --   1187.3850              1191.0728              1192.4078
 Red. masses --      1.2562                 1.1053                 1.1043
 Frc consts  --      1.0435                 0.9238                 0.9251
 IR Inten    --      2.5605                 0.2253                 0.1458

                     88                     89                     90
                      A                      A                      A
 Frequencies --   1211.0024              1236.7548              1240.4628
 Red. masses --      1.3261                 1.1580                 1.1549
 Frc consts  --      1.1458                 1.0436                 1.0470
 IR Inten    --     22.2248                 1.9998                 5.7268

                     91                     92                     93
                      A                      A                      A
 Frequencies --   1248.2787              1251.6835              1293.0937
 Red. masses --      1.1978                 1.1637                 1.5207
 Frc consts  --      1.0997                 1.0742                 1.4981
 IR Inten    --      2.8768                 5.3776                30.4445

                     94                     95                     96
                      A                      A                      A
 Frequencies --   1297.2676              1327.0450              1330.2397
 Red. masses --      1.6442                 4.4847                 4.9679
 Frc consts  --      1.6303                 4.6533                 5.1794
 IR Inten    --     11.8572                 7.4347                 6.6350

                     97                     98                     99
                      A                      A                      A
 Frequencies --   1344.8501              1350.6482              1386.6810
 Red. masses --      1.5799                 1.6716                 1.3874
 Frc consts  --      1.6836                 1.7967                 1.5718
 IR Inten    --      7.8891                 6.0998                 3.2415

                    100                    101                    102
                      A                      A                      A
 Frequencies --   1389.8502              1399.2981              1403.9469
 Red. masses --      1.3816                 2.3807                 1.8920
 Frc consts  --      1.5724                 2.7464                 2.1973
 IR Inten    --      2.7586                27.8796                30.7680

                    103                    104                    105
                      A                      A                      A
 Frequencies --   1483.1840              1487.3262              1501.3791
 Red. masses --      2.1426                 2.1697                 1.1259
 Frc consts  --      2.7771                 2.8278                 1.4953
 IR Inten    --     36.7933                30.7074                 4.2289

                    106                    107                    108
                      A                      A                      A
 Frequencies --   1509.9686              1520.8811              1542.3391
 Red. masses --      1.0524                 1.0457                 1.9650
 Frc consts  --      1.4137                 1.4251                 2.7541
 IR Inten    --     22.5698                23.2761                34.0099

                    109                    110                    111
                      A                      A                      A
 Frequencies --   1546.5428              1546.8259              1550.4411
 Red. masses --      2.0386                 1.9714                 2.0103
 Frc consts  --      2.8728                 2.7791                 2.8473
 IR Inten    --     22.5295                 8.9592                13.6966

                    112                    113                    114
                      A                      A                      A
 Frequencies --   1553.2159              1557.9060              1655.2255
 Red. masses --      2.2849                 2.2333                 5.2291
 Frc consts  --      3.2477                 3.1936                 8.4410
 IR Inten    --     77.5865                53.8743                 4.4453

                    115                    116                    117
                      A                      A                      A
 Frequencies --   1657.5753              1670.4129              1673.3528
 Red. masses --      5.3060                 3.7055                 5.5060
 Frc consts  --      8.5894                 6.0918                 9.0837
 IR Inten    --      0.7059                78.1848                 0.6307

                    118                    119                    120
                      A                      A                      A
 Frequencies --   1675.4289              1683.4275              1705.4088
 Red. masses --      5.4298                 3.4303                 5.0865
 Frc consts  --      8.9802                 5.7275                 8.7162
 IR Inten    --      0.5761                70.6743               136.6666

                    121                    122                    123
                      A                      A                      A
 Frequencies --   1710.6072              3091.1921              3185.9624
 Red. masses --      5.2915                 1.0287                 1.1072
 Frc consts  --      9.1228                 5.7917                 6.6216
 IR Inten    --    143.7123                60.5250                29.5641

                    124                    125                    126
                      A                      A                      A
 Frequencies --   3190.3425              3203.2264              3210.5173
 Red. masses --      1.1093                 1.0869                 1.0886
 Frc consts  --      6.6522                 6.5705                 6.6108
 IR Inten    --     19.3529                 6.7496                 0.5414

                    127                    128                    129
                      A                      A                      A
 Frequencies --   3212.6329              3219.2146              3220.6683
 Red. masses --      1.0881                 1.0890                 1.0930
 Frc consts  --      6.6169                 6.6491                 6.6799
 IR Inten    --      0.6181                 0.2995                29.7664

                    130                    131                    132
                      A                      A                      A
 Frequencies --   3228.2427              3231.9456              3233.7627
 Red. masses --      1.0931                 1.0958                 1.0918
 Frc consts  --      6.7120                 6.7436                 6.7269
 IR Inten    --     16.3364                31.0885                 2.0702

                    133                    134                    135
                      A                      A                      A
 Frequencies --   3238.0783              3239.9617              3253.2057
 Red. masses --      1.0977                 1.0948                 1.0936
 Frc consts  --      6.7811                 6.7709                 6.8193
 IR Inten    --     22.4021                18.8593                 9.5468

                    136                    137                    138
                      A                      A                      A
 Frequencies --   3254.3402              3276.2882              3279.4129
 Red. masses --      1.0931                 1.0911                 1.0913
 Frc consts  --      6.8211                 6.9005                 6.9147
 IR Inten    --      3.4958                 7.7992                 6.1074

                    139                    140                    141
                      A                      A                      A
 Frequencies --   3288.7819              3290.2873              3291.8932
 Red. masses --      1.0975                 1.0993                 1.0984
 Frc consts  --      6.9939                 7.0116                 7.0131
 IR Inten    --      4.2203                 0.6293                 9.7527

                    142                    143                    144
                      A                      A                      A
 Frequencies --   3293.4144              3601.1001              3607.9530
 Red. masses --      1.0994                 1.0816                 1.0817
 Frc consts  --      7.0256                 8.2640                 8.2958
 IR Inten    --      3.1046               337.6734               357.1781

 - Thermochemistry -
 -------------------
 Temperature   298.150 Kelvin.  Pressure   1.00000 Atm.
 Atom     1 has atomic number  6 and mass  12.00000

 Molecular mass:   374.15480 amu.
 Principal axes and moments of inertia in atomic units:
                           1         2         3
     Eigenvalues --  7998.650899753.10861**********
           X            1.00000   0.00145  -0.00123
           Y           -0.00145   1.00000  -0.00203
           Z            0.00122   0.00203   1.00000
 This molecule is an asymmetric top.
 Rotational symmetry number  1.
 Warning -- assumption of classical behavior for rotation
           may cause significant error
 Rotational temperatures (Kelvin)      0.01083     0.00888     0.00674
 Rotational constants (GHZ):           0.22563     0.18504     0.14039
 Zero-point vibrational energy    1099606.8 (Joules/Mol)
                                  262.81234 (Kcal/Mol)
 Warning -- explicit consideration of  34 degrees of freedom as
           vibrations may cause significant error
 Vibrational temperatures:     32.74    47.08    59.10    64.97    85.09
          (Kelvin)            101.79   104.21   115.25   131.13   146.50
                              223.71   247.22   269.82   284.43   305.94
                              318.80   330.62   368.91   374.33   386.13
                              401.29   420.44   519.60   577.88   582.22
                              589.05   591.62   599.53   659.05   674.71
                              761.54   784.05   807.90   823.47   913.49
                              915.11   953.68   954.13   965.23   980.73
                             1001.48  1027.70  1038.43  1046.33  1071.35
                             1086.55  1103.12  1104.90  1115.97  1120.28
                             1123.36  1258.80  1267.15  1287.32  1292.89
                             1317.93  1337.14  1373.13  1377.18  1456.55
                             1460.64  1468.28  1470.07  1473.28  1476.75
                             1478.72  1483.72  1488.17  1489.75  1490.54
                             1496.12  1527.19  1531.37  1557.17  1579.91
                             1587.72  1604.18  1613.33  1623.21  1624.09
                             1635.54  1646.40  1651.00  1660.30  1708.38
                             1713.69  1715.61  1742.36  1779.41  1784.75
                             1795.99  1800.89  1860.47  1866.48  1909.32
                             1913.92  1934.94  1943.28  1995.12  1999.68
                             2013.28  2019.97  2133.97  2139.93  2160.15
                             2172.51  2188.21  2219.08  2225.13  2225.54
                             2230.74  2234.73  2241.48  2381.50  2384.88
                             2403.35  2407.58  2410.57  2422.08  2453.70
                             2461.18  4447.54  4583.89  4590.19  4608.73
                             4619.22  4622.26  4631.73  4633.82  4644.72
                             4650.05  4652.66  4658.87  4661.58  4680.64
                             4682.27  4713.85  4718.34  4731.82  4733.99
                             4736.30  4738.49  5181.18  5191.04

 Zero-point correction=                           0.418818 (Hartree/Particle)
 Thermal correction to Energy=                    0.442374
 Thermal correction to Enthalpy=                  0.443318
 Thermal correction to Gibbs Free Energy=         0.364446
 Sum of electronic and zero-point Energies=          -1415.278565
 Sum of electronic and thermal Energies=             -1415.255009
 Sum of electronic and thermal Enthalpies=           -1415.254065
 Sum of electronic and thermal Free Energies=        -1415.332938

                     E (Thermal)             CV                S
                      KCal/Mol        Cal/Mol-Kelvin    Cal/Mol-Kelvin
 Total                  277.594             92.240            166.002
 Electronic               0.000              0.000              0.000
 Translational            0.889              2.981             43.651
 Rotational               0.889              2.981             35.260
 Vibrational            275.817             86.278             87.090
 Vibration     1          0.593              1.985              6.378
 Vibration     2          0.594              1.983              5.657
 Vibration     3          0.594              1.981              5.206
 Vibration     4          0.595              1.979              5.019
 Vibration     5          0.597              1.974              4.486
 Vibration     6          0.598              1.968              4.132
 Vibration     7          0.599              1.967              4.086
 Vibration     8          0.600              1.963              3.888
 Vibration     9          0.602              1.955              3.635
 Vibration    10          0.604              1.948              3.419
 Vibration    11          0.620              1.897              2.604
 Vibration    12          0.626              1.877              2.415
 Vibration    13          0.632              1.857              2.252
 Vibration    14          0.637              1.843              2.154
 Vibration    15          0.644              1.822              2.021
 Vibration    16          0.648              1.808              1.946
 Vibration    17          0.652              1.796              1.881
 Vibration    18          0.666              1.752              1.686
 Vibration    19          0.668              1.746              1.661
 Vibration    20          0.673              1.731              1.607
 Vibration    21          0.679              1.713              1.540
 Vibration    22          0.688              1.688              1.461
 Vibration    23          0.735              1.552              1.117
 Vibration    24          0.767              1.467              0.957
 Vibration    25          0.770              1.460              0.946
 Vibration    26          0.774              1.450              0.929
 Vibration    27          0.775              1.446              0.922
 Vibration    28          0.780              1.434              0.903
 Vibration    29          0.816              1.343              0.772
 Vibration    30          0.826              1.319              0.740
 Vibration    31          0.884              1.185              0.589
 Vibration    32          0.900              1.151              0.555
 Vibration    33          0.917              1.115              0.521
 Vibration    34          0.929              1.091              0.500

                           ! Non-Optimized Parameters !
 Normal termination of Gaussian 16 at Thu Mar 15 18:36:55 2018.
