 Gaussian 16, Revision A.03,
 Gaussian 16:  ES64L-G16RevA.03 25-Dec-2016

 ----------------------------------------------------------------------
 # opt=maxcycles=200 freq=noraman wb97xd/6-31+g(d) scrf=(solvent=ethano
 l,smd) geom=connectivity
 ----------------------------------------------------------------------

 -------------------
 Title Card Required
 -------------------
 Symbolic Z-matrix:
 Charge =  2 Multiplicity = 1

 SCF Done:  E(RwB97XD) =  -1415.71334703     A.U. after   16 cycles
 SCF Done:  E(RwB97XD) =  -1415.71322071     A.U. after   13 cycles
 SCF Done:  E(RwB97XD) =  -1415.71329892     A.U. after   13 cycles
 SCF Done:  E(RwB97XD) =  -1415.71333591     A.U. after   13 cycles
 SCF Done:  E(RwB97XD) =  -1415.71332069     A.U. after   11 cycles
 SCF Done:  E(RwB97XD) =  -1415.71329859     A.U. after   11 cycles
 SCF Done:  E(RwB97XD) =  -1415.71327906     A.U. after   12 cycles
 SCF Done:  E(RwB97XD) =  -1415.71341983     A.U. after   13 cycles
 SCF Done:  E(RwB97XD) =  -1415.71330784     A.U. after   12 cycles
 SCF Done:  E(RwB97XD) =  -1415.71325404     A.U. after   13 cycles
 SCF Done:  E(RwB97XD) =  -1415.71335392     A.U. after   15 cycles
 SCF Done:  E(RwB97XD) =  -1415.71308203     A.U. after   14 cycles
 SCF Done:  E(RwB97XD) =  -1415.71331121     A.U. after   13 cycles
 SCF Done:  E(RwB97XD) =  -1415.71335408     A.U. after   13 cycles
 SCF Done:  E(RwB97XD) =  -1415.71324491     A.U. after   13 cycles
 SCF Done:  E(RwB97XD) =  -1415.71331749     A.U. after   13 cycles
 SCF Done:  E(RwB97XD) =  -1415.71325503     A.U. after   13 cycles
 SCF Done:  E(RwB97XD) =  -1415.71325467     A.U. after   11 cycles
 SCF Done:  E(RwB97XD) =  -1415.71325502     A.U. after   11 cycles
 Optimization completed.
    -- Stationary point found.
 Normal termination of Gaussian 16 at Fri Mar 16 13:25:17 2018.

 ----------------------------------------------------------------------
 #N Geom=AllCheck Guess=TCheck SCRF=Check GenChk RwB97XD/6-31+G(d) Freq
 ----------------------------------------------------------------------

 Structure from the checkpoint file:  "Int3_SNdcdgy.chk"
 -------------------
 Title Card Required
 -------------------
 Charge =  2 Multiplicity = 1

                         Standard orientation:
 ---------------------------------------------------------------------
 Center     Atomic      Atomic             Coordinates (Angstroms)
 Number     Number       Type             X           Y           Z
 ---------------------------------------------------------------------
      1          6           0        2.548852   -3.228433   -0.680524
      2          6           0        1.456027   -2.395119   -0.790458
      3          6           0        1.531780   -1.089266   -0.293734
      4          6           0        2.727380   -0.654429    0.285998
      5          6           0        3.799875   -1.520191    0.361367
      6          1           0        2.563596   -4.250748   -1.036218
      7          1           0        0.564994   -2.775418   -1.276453
      8          1           0        2.848185    0.348171    0.678873
      9          1           0        4.757633   -1.253320    0.790028
     10         15           0        0.088247    0.055039   -0.506813
     11          6           0        0.394152    1.859753   -0.268292
     12          6           0        0.064267    2.762677   -1.286666
     13          6           0        0.962985    2.352728    0.912915
     14          6           0        0.270619    4.128906   -1.113696
     15          1           0       -0.343729    2.403853   -2.224505
     16          6           0        1.202566    3.715278    1.069498
     17          1           0        1.229218    1.684805    1.726519
     18          1           0       -0.008206    4.815999   -1.907454
     19          1           0        1.660644    4.076294    1.985877
     20          6           0       -0.454367   -0.142230    1.391631
     21          6           0       -1.540089    0.640719    1.822977
     22          6           0        0.088495   -1.039798    2.317102
     23          6           0       -2.031152    0.525262    3.101762
     24          1           0       -2.018122    1.354501    1.158357
     25          6           0       -0.431103   -1.132720    3.595467
     26          1           0        0.917087   -1.695242    2.074815
     27          1           0       -2.861830    1.102344    3.488365
     28          1           0       -0.052131   -1.809622    4.351372
     29          8           0        0.443661    0.113989   -2.218251
     30          6           0       -1.560700   -0.621496   -0.980400
     31          6           0       -1.999060   -1.838861   -0.447979
     32          6           0       -2.400926    0.092256   -1.840547
     33          6           0       -3.250446   -2.346047   -0.789846
     34          1           0       -1.372823   -2.405379    0.236050
     35          6           0       -3.666568   -0.400689   -2.150926
     36          1           0       -2.083842    1.037151   -2.267549
     37          1           0       -3.570021   -3.301884   -0.384340
     38          1           0       -4.317210    0.172245   -2.805720
     39          6           0        1.703806    0.506225   -2.737164
     40          1           0        2.334009   -0.373766   -2.922090
     41          1           0        1.531800    1.022105   -3.687493
     42          1           0        2.244749    1.189967   -2.070165
     43          6           0       -4.091350   -1.623452   -1.634173
     44          1           0       -5.074070   -2.011239   -1.887817
     45          7           0       -1.463464   -0.354980    3.949412
     46          1           0       -1.835167   -0.432987    4.893837
     47          7           0        3.676827   -2.769443   -0.112876
     48          6           0        0.845344    4.608572    0.061558
     49          1           0        1.018442    5.673474    0.190079
     50          1           0        4.477939   -3.395714   -0.047138
 ---------------------------------------------------------------------

 SCF Done:  E(RwB97XD) =  -1415.71325502     A.U. after    1 cycles

 The electronic state is 1-A.
 Alpha  occ. eigenvalues --  -77.37363 -19.27170 -14.58398 -14.57462 -10.40261
 Alpha  occ. eigenvalues --  -10.40153 -10.39442 -10.39048 -10.37922 -10.35822
 Alpha  occ. eigenvalues --  -10.35767 -10.35275 -10.34483 -10.34351 -10.33668
 Alpha  occ. eigenvalues --  -10.33647 -10.33524 -10.32647 -10.32400 -10.32364
 Alpha  occ. eigenvalues --  -10.32178 -10.32100 -10.31840 -10.31787 -10.31742
 Alpha  occ. eigenvalues --  -10.31697 -10.31609  -6.78366  -4.93251  -4.93235
 Alpha  occ. eigenvalues --   -4.93141  -1.15130  -1.14177  -1.11901  -0.98468
 Alpha  occ. eigenvalues --   -0.97565  -0.97149  -0.95270  -0.92921  -0.91837
 Alpha  occ. eigenvalues --   -0.88832  -0.86593  -0.86388  -0.86130  -0.82398
 Alpha  occ. eigenvalues --   -0.79420  -0.78586  -0.78112  -0.77687  -0.73525
 Alpha  occ. eigenvalues --   -0.71787  -0.71390  -0.71288  -0.71011  -0.70603
 Alpha  occ. eigenvalues --   -0.68147  -0.64051  -0.63072  -0.62382  -0.61866
 Alpha  occ. eigenvalues --   -0.60360  -0.59671  -0.58842  -0.58600  -0.57088
 Alpha  occ. eigenvalues --   -0.56837  -0.56202  -0.55813  -0.55737  -0.55356
 Alpha  occ. eigenvalues --   -0.55189  -0.54645  -0.53756  -0.53517  -0.52509
 Alpha  occ. eigenvalues --   -0.51914  -0.51656  -0.50365  -0.49701  -0.49468
 Alpha  occ. eigenvalues --   -0.48244  -0.47452  -0.47385  -0.45004  -0.44243
 Alpha  occ. eigenvalues --   -0.43857  -0.43506  -0.42596  -0.41305  -0.40749
 Alpha  occ. eigenvalues --   -0.39237  -0.38333  -0.36673  -0.36046  -0.34758
 Alpha  occ. eigenvalues --   -0.34614  -0.34312  -0.33868
 Alpha virt. eigenvalues --   -0.03153  -0.02205   0.00461   0.01548   0.01953
 Alpha virt. eigenvalues --    0.03753   0.04179   0.04816   0.05040   0.05501
 Alpha virt. eigenvalues --    0.06141   0.06553   0.07482   0.07685   0.08193

 Mulliken charges:
               1
     1  C   -0.972150
     2  C    1.001024
     3  C   -1.449162
     4  C    1.381448
     5  C   -0.982083
     6  H    0.320836
     7  H    0.322742
     8  H    0.319760
     9  H    0.321247
    10  P    0.398370
    11  C   -0.165089
    12  C    0.249519
    13  C   -0.251471
    14  C   -0.454857
    15  H    0.270039
    16  C   -0.539211
    17  H    0.271323
    18  H    0.256281
    19  H    0.255857
    20  C   -0.550876
    21  C    0.610971
    22  C    1.033567
    23  C   -0.800734
    24  H    0.303165
    25  C   -0.816090
    26  H    0.295986
    27  H    0.311966
    28  H    0.311727
    29  O   -0.491732
    30  C   -0.290495
    31  C   -0.195281
    32  C    0.607986
    33  C   -0.538927
    34  H    0.269655
    35  C   -0.462247
    36  H    0.257862
    37  H    0.253664
    38  H    0.254395
    39  C   -0.322705
    40  H    0.230745
    41  H    0.234849
    42  H    0.241464
    43  C   -0.208947
    44  H    0.254269
    45  N   -0.318242
    46  H    0.565909
    47  N   -0.297041
    48  C   -0.131671
    49  H    0.256677
    50  H    0.575709
 Sum of Mulliken charges =   2.00000

 Dipole moment (field-independent basis, Debye):
    X=              9.6912    Y=            -10.3863    Z=             14.3004  Tot=             20.1568
 Quadrupole moment (field-independent basis, Debye-Ang):
   XX=            -72.8502   YY=            -93.2582   ZZ=            -91.7479
   XY=            -36.2726   XZ=            -13.8609   YZ=             -7.1895

  Exact polarizability: 404.178  -6.796 441.920  40.355 -18.690 389.495
 Approx polarizability: 311.256  -8.202 339.644  32.344 -15.633 306.793

                      1                      2                      3
                      A                      A                      A
 Frequencies --     27.2603                39.2528                49.6770
 Red. masses --      4.6205                 5.1178                 4.2550
 Frc consts  --      0.0020                 0.0046                 0.0062
 IR Inten    --      1.3629                 6.6651                 2.3177

                      4                      5                      6
                      A                      A                      A
 Frequencies --     57.3598                61.4097                67.1133
 Red. masses --      4.9995                 4.8539                 4.1902
 Frc consts  --      0.0097                 0.0108                 0.0111
 IR Inten    --      1.1845                 5.4102                 4.0035

                      7                      8                      9
                      A                      A                      A
 Frequencies --     74.9028                88.3358               102.4565
 Red. masses --      4.3234                 3.9444                 3.8872
 Frc consts  --      0.0143                 0.0181                 0.0240
 IR Inten    --      6.2422                 0.2748                 1.1317

                     10                     11                     12
                      A                      A                      A
 Frequencies --    123.1424               146.2588               180.9129
 Red. masses --      3.8132                 2.1905                 1.3484
 Frc consts  --      0.0341                 0.0276                 0.0260
 IR Inten    --      1.6530                 0.5771                 0.2068

                     13                     14                     15
                      A                      A                      A
 Frequencies --    202.6617               213.3902               220.7912
 Red. masses --      4.0903                 5.6159                 4.1551
 Frc consts  --      0.0990                 0.1507                 0.1193
 IR Inten    --      1.9110                 5.7209                 2.0346

                     16                     17                     18
                      A                      A                      A
 Frequencies --    226.7324               236.6551               244.6239
 Red. masses --      4.5123                 4.8816                 5.2103
 Frc consts  --      0.1367                 0.1611                 0.1837
 IR Inten    --      4.3661                 0.3443                 8.2941

                     19                     20                     21
                      A                      A                      A
 Frequencies --    247.4047               271.4194               282.2176
 Red. masses --      4.9264                 5.0192                 4.5269
 Frc consts  --      0.1777                 0.2179                 0.2124
 IR Inten    --      6.7472                 5.3587                 2.1347

                     22                     23                     24
                      A                      A                      A
 Frequencies --    306.6590               326.7828               384.8941
 Red. masses --      6.6792                 4.5890                 5.7019
 Frc consts  --      0.3701                 0.2887                 0.4977
 IR Inten    --     37.0779                 7.0494                26.5526

                     25                     26                     27
                      A                      A                      A
 Frequencies --    402.3072               406.3727               418.6974
 Red. masses --      2.7513                 2.7543                 2.9378
 Frc consts  --      0.2624                 0.2680                 0.3034
 IR Inten    --      0.2423                 0.1111                 2.3720

                     28                     29                     30
                      A                      A                      A
 Frequencies --    429.7870               464.7791               494.1457
 Red. masses --      2.9899                 4.7379                 4.7907
 Frc consts  --      0.3254                 0.6030                 0.6892
 IR Inten    --      1.1268                10.3292                22.7624

                     31                     32                     33
                      A                      A                      A
 Frequencies --    524.6246               541.0343               543.2500
 Red. masses --      4.4892                 4.0855                 5.1841
 Frc consts  --      0.7280                 0.7046                 0.9014
 IR Inten    --     90.5743               276.4598               347.8980

                     34                     35                     36
                      A                      A                      A
 Frequencies --    555.1861               582.7330               633.8804
 Red. masses --      7.0056                 5.7220                 6.3858
 Frc consts  --      1.2723                 1.1448                 1.5117
 IR Inten    --    183.9487               240.6296                 0.8465

                     37                     38                     39
                      A                      A                      A
 Frequencies --    635.7901               662.4532               664.2448
 Red. masses --      6.4303                 6.4973                 6.4994
 Frc consts  --      1.5315                 1.6799                 1.6896
 IR Inten    --      3.7215                 1.9294                 2.0501

                     40                     41                     42
                      A                      A                      A
 Frequencies --    682.2021               691.1357               720.3587
 Red. masses --      6.9956                 6.5519                 2.1902
 Frc consts  --      1.9182                 1.8439                 0.6696
 IR Inten    --     60.3066                 4.1546                 9.3721

                     43                     44                     45
                      A                      A                      A
 Frequencies --    722.1501               728.3530               740.5959
 Red. masses --      2.0538                 3.3112                 4.9361
 Frc consts  --      0.6310                 1.0350                 1.5951
 IR Inten    --    155.9882               131.9911                90.5422

                     46                     47                     48
                      A                      A                      A
 Frequencies --    747.7452               759.0062               765.1071
 Red. masses --      4.2302                 3.7359                 1.2833
 Frc consts  --      1.3935                 1.2681                 0.4426
 IR Inten    --      8.9937                93.6908                92.2452

                     49                     50                     51
                      A                      A                      A
 Frequencies --    773.3403               776.3395               779.0368
 Red. masses --      1.3012                 1.6475                 1.7646
 Frc consts  --      0.4585                 0.5850                 0.6310
 IR Inten    --     82.0495                15.6201                93.7639

                     52                     53                     54
                      A                      A                      A
 Frequencies --    880.2415               886.7040               892.4853
 Red. masses --      1.2510                 1.2408                 1.2566
 Frc consts  --      0.5711                 0.5748                 0.5897
 IR Inten    --      1.3974                 0.1649                 1.6010

                     55                     56                     57
                      A                      A                      A
 Frequencies --    897.2902               912.7932               924.5973
 Red. masses --      1.2562                 1.3585                 1.3467
 Frc consts  --      0.5959                 0.6669                 0.6783
 IR Inten    --      0.8371                 2.8992                 3.4872

                     58                     59                     60
                      A                      A                      A
 Frequencies --    966.4013               983.4145              1018.7477
 Red. masses --      1.3374                 1.3250                 1.3903
 Frc consts  --      0.7359                 0.7550                 0.8501
 IR Inten    --      2.0726                 2.9787                 0.5243

                     61                     62                     63
                      A                      A                      A
 Frequencies --   1020.9005              1021.6083              1022.7315
 Red. masses --      1.5390                 4.1995                 2.8197
 Frc consts  --      0.9451                 2.5824                 1.7377
 IR Inten    --      5.2472                 3.1793                 2.4743

                     64                     65                     66
                      A                      A                      A
 Frequencies --   1025.5105              1026.4803              1027.9186
 Red. masses --      1.7357                 1.3485                 1.3370
 Frc consts  --      1.0755                 0.8371                 0.8324
 IR Inten    --      2.4592                 2.9531                 1.9615

                     67                     68                     69
                      A                      A                      A
 Frequencies --   1032.2901              1036.4880              1037.9993
 Red. masses --      1.4822                 5.6865                 2.5787
 Frc consts  --      0.9306                 3.5994                 1.6370
 IR Inten    --      1.0633                 1.3599                 2.2480

                     70                     71                     72
                      A                      A                      A
 Frequencies --   1041.1734              1043.5132              1063.8193
 Red. masses --      1.5297                 1.3696                 3.3373
 Frc consts  --      0.9770                 0.8787                 2.2253
 IR Inten    --      1.2615                 0.1660                 0.0393

                     73                     74                     75
                      A                      A                      A
 Frequencies --   1064.9014              1086.8894              1095.0940
 Red. masses --      2.9794                 7.3833                 5.8849
 Frc consts  --      1.9906                 5.1389                 4.1581
 IR Inten    --      1.6757               383.8328                 1.9188

                     76                     77                     78
                      A                      A                      A
 Frequencies --   1105.7112              1122.8896              1125.6214
 Red. masses --      3.0484                 1.8972                 1.7633
 Frc consts  --      2.1959                 1.4094                 1.3163
 IR Inten    --      9.1571                56.1001                13.5102

                     79                     80                     81
                      A                      A                      A
 Frequencies --   1126.7772              1134.5550              1140.8626
 Red. masses --      2.2637                 1.6781                 2.6558
 Frc consts  --      1.6934                 1.2727                 2.0366
 IR Inten    --     45.1246                13.5562                49.5017

                     82                     83                     84
                      A                      A                      A
 Frequencies --   1148.4070              1152.1342              1160.4361
 Red. masses --      1.9890                 1.8070                 1.9797
 Frc consts  --      1.5456                 1.4132                 1.5707
 IR Inten    --     19.3960                 5.5016                19.0736

                     85                     86                     87
                      A                      A                      A
 Frequencies --   1189.7345              1193.6858              1194.5604
 Red. masses --      1.2715                 1.0981                 1.1005
 Frc consts  --      1.0604                 0.9218                 0.9253
 IR Inten    --      5.2678                 0.5571                 0.1120

                     88                     89                     90
                      A                      A                      A
 Frequencies --   1212.9777              1229.0507              1239.5335
 Red. masses --      1.3613                 1.1355                 1.1513
 Frc consts  --      1.1801                 1.0106                 1.0422
 IR Inten    --     26.1222                 7.7130                 2.0605

                     91                     92                     93
                      A                      A                      A
 Frequencies --   1255.0420              1257.5431              1292.9901
 Red. masses --      1.1642                 1.1673                 1.5337
 Frc consts  --      1.0804                 1.0877                 1.5107
 IR Inten    --      5.8715                 3.5802                10.1458

                     94                     95                     96
                      A                      A                      A
 Frequencies --   1295.7254              1334.9056              1338.2719
 Red. masses --      1.7884                 4.0131                 2.7797
 Frc consts  --      1.7690                 4.2134                 2.9332
 IR Inten    --     22.3708                 0.3767                 0.8785

                     97                     98                     99
                      A                      A                      A
 Frequencies --   1348.2522              1349.7200              1373.8180
 Red. masses --      2.1716                 1.7197                 1.5444
 Frc consts  --      2.3258                 1.8458                 1.7174
 IR Inten    --      1.0663                 5.4311                 5.2926

                    100                    101                    102
                      A                      A                      A
 Frequencies --   1388.8373              1409.1498              1410.3191
 Red. masses --      1.3639                 1.9520                 1.7302
 Frc consts  --      1.5500                 2.2837                 2.0275
 IR Inten    --      7.7938                18.3731                29.6639

                    103                    104                    105
                      A                      A                      A
 Frequencies --   1488.1327              1490.7824              1504.9649
 Red. masses --      2.1516                 2.1734                 1.1371
 Frc consts  --      2.8073                 2.8459                 1.5173
 IR Inten    --      8.2865                64.0907                 3.2888

                    106                    107                    108
                      A                      A                      A
 Frequencies --   1514.3332              1525.3766              1541.5462
 Red. masses --      1.0479                 1.0438                 2.0453
 Frc consts  --      1.4159                 1.4309                 2.8637
 IR Inten    --      9.7646                10.2257                12.9434

                    109                    110                    111
                      A                      A                      A
 Frequencies --   1543.1055              1549.0350              1554.4184
 Red. masses --      2.0841                 1.9993                 2.0890
 Frc consts  --      2.9239                 2.8265                 2.9739
 IR Inten    --     50.1372                12.1408                23.7714

                    112                    113                    114
                      A                      A                      A
 Frequencies --   1555.6120              1557.2889              1658.0636
 Red. masses --      2.0943                 2.2181                 5.4531
 Frc consts  --      2.9860                 3.1693                 8.8327
 IR Inten    --     80.2150                72.8327                 0.9590

                    115                    116                    117
                      A                      A                      A
 Frequencies --   1660.9335              1672.1104              1673.4788
 Red. masses --      5.4077                 3.5912                 5.6807
 Frc consts  --      8.7895                 5.9159                 9.3733
 IR Inten    --      1.9977                63.6032                 5.3247

                    118                    119                    120
                      A                      A                      A
 Frequencies --   1675.3213              1679.5522              1707.6002
 Red. masses --      5.4577                 3.4121                 5.0786
 Frc consts  --      9.0252                 5.6710                 8.7250
 IR Inten    --      0.9552                73.3359               155.8750

                    121                    122                    123
                      A                      A                      A
 Frequencies --   1714.4642              3040.4072              3110.4042
 Red. masses --      5.1919                 1.0323                 1.1040
 Frc consts  --      8.9915                 5.6224                 6.2928
 IR Inten    --    140.9669               102.3006                63.4661

                    124                    125                    126
                      A                      A                      A
 Frequencies --   3138.7784              3217.7722              3219.5708
 Red. masses --      1.1041                 1.0870                 1.0873
 Frc consts  --      6.4086                 6.6310                 6.6403
 IR Inten    --     53.9489                 0.7872                 0.1623

                    127                    128                    129
                      A                      A                      A
 Frequencies --   3223.4280              3226.4965              3231.6902
 Red. masses --      1.0896                 1.0901                 1.0938
 Frc consts  --      6.6707                 6.6864                 6.7306
 IR Inten    --      2.3624                 3.6799                19.5721

                    130                    131                    132
                      A                      A                      A
 Frequencies --   3234.1001              3237.6123              3241.3673
 Red. masses --      1.0940                 1.0924                 1.0981
 Frc consts  --      6.7421                 6.7468                 6.7977
 IR Inten    --     21.0012                 2.1697                23.6633

                    133                    134                    135
                      A                      A                      A
 Frequencies --   3242.4845              3257.7171              3260.7975
 Red. masses --      1.0983                 1.0937                 1.0912
 Frc consts  --      6.8037                 6.8387                 6.8358
 IR Inten    --     15.0902                 6.0724                 3.7873

                    136                    137                    138
                      A                      A                      A
 Frequencies --   3262.2125              3267.1621              3267.4590
 Red. masses --      1.0931                 1.0939                 1.0924
 Frc consts  --      6.8535                 6.8800                 6.8714
 IR Inten    --      9.6685                13.1449                 1.0067

                    139                    140                    141
                      A                      A                      A
 Frequencies --   3287.6739              3289.4378              3294.8689
 Red. masses --      1.0977                 1.0989                 1.0987
 Frc consts  --      6.9908                 7.0054                 7.0273
 IR Inten    --      3.5683                 1.7201                 8.5777

                    142                    143                    144
                      A                      A                      A
 Frequencies --   3301.0921              3592.4478              3603.3477
 Red. masses --      1.0988                 1.0818                 1.0817
 Frc consts  --      7.0545                 8.2256                 8.2748
 IR Inten    --      5.4074               367.4207               335.8901

 - Thermochemistry -
 -------------------
 Temperature   298.150 Kelvin.  Pressure   1.00000 Atm.
 Atom     1 has atomic number  6 and mass  12.00000

 Molecular mass:   374.15480 amu.
 Principal axes and moments of inertia in atomic units:
                           1         2         3
     Eigenvalues --  9490.882949676.14746**********
           X            0.99998   0.00633  -0.00171
           Y           -0.00636   0.99982  -0.01774
           Z            0.00160   0.01775   0.99984
 This molecule is an asymmetric top.
 Rotational symmetry number  1.
 Warning -- assumption of classical behavior for rotation
           may cause significant error
 Rotational temperatures (Kelvin)      0.00913     0.00895     0.00787
 Rotational constants (GHZ):           0.19016     0.18651     0.16402
 Zero-point vibrational energy    1099864.1 (Joules/Mol)
                                  262.87384 (Kcal/Mol)
 Warning -- explicit consideration of  35 degrees of freedom as
           vibrations may cause significant error
 Vibrational temperatures:     39.22    56.48    71.47    82.53    88.35
          (Kelvin)             96.56   107.77   127.10   147.41   177.17
                              210.43   260.29   291.58   307.02   317.67
                              326.22   340.49   351.96   355.96   390.51
                              406.05   441.21   470.17   553.78   578.83
                              584.68   602.41   618.37   668.71   710.97
                              754.82   778.43   781.62   798.79   838.42
                              912.01   914.76   953.12   955.70   981.54
                              994.39  1036.44  1039.01  1047.94  1065.55
                             1075.84  1092.04  1100.82  1112.66  1116.98
                             1120.86  1266.47  1275.77  1284.09  1291.00
                             1313.31  1330.29  1390.44  1414.91  1465.75
                             1468.85  1469.87  1471.48  1475.48  1476.88
                             1478.95  1485.24  1491.27  1493.45  1498.02
                             1501.38  1530.60  1532.16  1563.79  1575.60
                             1590.87  1615.59  1619.52  1621.18  1632.37
                             1641.45  1652.30  1657.66  1669.61  1711.76
                             1717.45  1718.71  1745.20  1768.33  1783.41
                             1805.73  1809.32  1860.32  1864.26  1920.63
                             1925.47  1939.83  1941.95  1976.62  1998.23
                             2027.45  2029.13  2141.09  2144.90  2165.31
                             2178.79  2194.68  2217.94  2220.18  2228.72
                             2236.46  2238.18  2240.59  2385.58  2389.71
                             2405.79  2407.76  2410.41  2416.50  2456.86
                             2466.73  4374.47  4475.18  4516.00  4629.66
                             4632.24  4637.79  4642.21  4649.68  4653.15
                             4658.20  4663.60  4665.21  4687.13  4691.56
                             4693.60  4700.72  4701.14  4730.23  4732.77
                             4740.58  4749.54  5168.73  5184.41

 Zero-point correction=                           0.418916 (Hartree/Particle)
 Thermal correction to Energy=                    0.442336
 Thermal correction to Enthalpy=                  0.443281
 Thermal correction to Gibbs Free Energy=         0.365580
 Sum of electronic and zero-point Energies=          -1415.294339
 Sum of electronic and thermal Energies=             -1415.270919
 Sum of electronic and thermal Enthalpies=           -1415.269974
 Sum of electronic and thermal Free Energies=        -1415.347675

                     E (Thermal)             CV                S
                      KCal/Mol        Cal/Mol-Kelvin    Cal/Mol-Kelvin
 Total                  277.570             92.316            163.535
 Electronic               0.000              0.000              0.000
 Translational            0.889              2.981             43.651
 Rotational               0.889              2.981             35.268
 Vibrational            275.793             86.354             84.617
 Vibration     1          0.593              1.984              6.019
 Vibration     2          0.594              1.981              5.296
 Vibration     3          0.595              1.978              4.830
 Vibration     4          0.596              1.975              4.546
 Vibration     5          0.597              1.973              4.411
 Vibration     6          0.598              1.970              4.236
 Vibration     7          0.599              1.966              4.020
 Vibration     8          0.601              1.957              3.697
 Vibration     9          0.605              1.947              3.407
 Vibration    10          0.610              1.930              3.050
 Vibration    11          0.617              1.907              2.720
 Vibration    12          0.630              1.866              2.319
 Vibration    13          0.639              1.836              2.109
 Vibration    14          0.644              1.821              2.014
 Vibration    15          0.648              1.809              1.953
 Vibration    16          0.650              1.800              1.905
 Vibration    17          0.656              1.785              1.828
 Vibration    18          0.660              1.772              1.769
 Vibration    19          0.661              1.767              1.749
 Vibration    20          0.675              1.726              1.587
 Vibration    21          0.681              1.707              1.520
 Vibration    22          0.697              1.661              1.380
 Vibration    23          0.710              1.622              1.276
 Vibration    24          0.754              1.502              1.020
 Vibration    25          0.768              1.465              0.954
 Vibration    26          0.771              1.456              0.940
 Vibration    27          0.782              1.430              0.896
 Vibration    28          0.791              1.405              0.859
 Vibration    29          0.822              1.328              0.752
 Vibration    30          0.850              1.263              0.673
 Vibration    31          0.880              1.195              0.599
 Vibration    32          0.896              1.159              0.563
 Vibration    33          0.898              1.154              0.558
 Vibration    34          0.911              1.128              0.534
 Vibration    35          0.940              1.069              0.480

                           ! Non-Optimized Parameters !
 Normal termination of Gaussian 16 at Fri Mar 16 14:46:30 2018.
