                         Program Version 4.0.1.2 - RELEASE -
|  1> !CPCM DLPNO-CCSD(T) Extrapolate(2/3,cc)  RIJCOSX GRIDX5 TightSCF KDIIS
|  2> %cpcm
|  3> smd true
|  4> solvent "Ethanol"
|  5> end
|  6> # Number of processors
|  7> %pal nprocs 24 end
|  8> # Memory per core
|  9> %maxcore 4000
| 10> %scf maxiter 500
| 11>     end
| 12> % mdci
| 13>    # Loose cut-off
| 14>    #  TCutPairs 1e-3
| 15>    #  TCutPNO 1e-6
| 16>    #  TCutMKN 1e-3
| 17>    # Normal cut-off
| 18>      TCutPairs 1e-4
| 19>      TCutPNO 3.33e-7
| 20>      TCutMKN 1e-3
| 21>    # Tight cut-off
| 22>    #TCutPairs 1e-5
| 23>    #TCutPNO 1e-7
| 24>    #TCutMKN 1e-4
| 25>    # Faster/less disk-IO for large jobs
| 26>    #LocalTrafo 3
| 27>    Density None
| 28> end
| 29> % output
| 30>    printlevel mini
| 31>    print[ P_SCFInfo ] 1
| 32>    print[ P_SCFIterInfo ] 1
| 33>    print[ P_OrbEn ] 0
| 34>    print[ P_Cartesian ] 0
| 35> end
| 36> % elprop
| 37>    Dipole False
| 38> end
| 39> * xyz 2 1
| 40>  C                  4.63170400   -0.59044800    1.97293900
| 41>  C                  3.31569500   -0.87217300    1.60559800
| 42>  C                  2.76871000   -0.33237600    0.43443200
| 43>  C                  3.56537300    0.50076600   -0.36421000
| 44>  C                  4.87837400    0.78375900    0.00168100
| 45>  H                  5.04230200   -1.01419300    2.88539900
| 46>  H                  2.70875900   -1.51537700    2.23964400
| 47>  H                  3.16037800    0.93475900   -1.27461500
| 48>  H                  5.48654900    1.43012000   -0.62548000
| 49>  P                  1.03620300   -0.80550500    0.04109000
| 50>  C                  0.45876100    0.65970600   -0.91179100
| 51>  C                 -0.20620900    0.51615700   -2.13347800
| 52>  C                  0.54454400    1.93491500   -0.33598300
| 53>  C                 -0.76102100    1.62399100   -2.77513200
| 54>  H                 -0.29491300   -0.46505300   -2.59293700
| 55>  C                 -0.01219000    3.04023800   -0.97358100
| 56>  H                  1.05170600    2.07082500    0.61705900
| 57>  H                 -1.26825200    1.49535000   -3.72780900
| 58>  H                  0.06523800    4.02240000   -0.51444500
| 59>  C                 -2.51829300    0.37879000    0.90549100
| 60>  C                 -3.18029400    1.34259300    0.13856200
| 61>  C                 -1.77266300    0.79054200    2.01657200
| 62>  C                 -3.08609400    2.67234300    0.49294800
| 63>  H                 -3.78000800    1.07503700   -0.72344800
| 64>  C                 -1.71104000    2.13042900    2.33328700
| 65>  H                 -1.21797700    0.08585000    2.62442500
| 66>  H                 -3.56972900    3.47410600   -0.04990500
| 67>  H                 -1.15104400    2.52445300    3.17170300
| 68>  C                  5.41327600    0.23807100    1.17046300
| 69>  H                  6.43790500    0.46234500    1.45493900
| 70>  O                  1.18068300   -1.97472500   -1.13522100
| 71>  C                 -2.57309300   -1.05907600    0.53908400
| 72>  C                 -2.52484600   -2.04757100    1.52890900
| 73>  C                 -2.63466600   -1.44735400   -0.80358400
| 74>  C                 -2.50945900   -3.37591400    1.16039000
| 75>  H                 -2.50534300   -1.80061200    2.58383400
| 76>  C                 -2.60794700   -2.78824000   -1.12400500
| 77>  H                 -2.67139600   -0.72248400   -1.60751900
| 78>  H                 -2.46875800   -4.19552400    1.86659000
| 79>  H                 -2.63079200   -3.16358900   -2.13893000
| 80>  C                  2.14480200   -1.89493900   -2.19025100
| 81>  H                  3.14754200   -2.10709000   -1.80504900
| 82>  H                  1.86783600   -2.65728100   -2.92225400
| 83>  H                  2.14042000   -0.91162600   -2.67204000
| 84>  N                 -2.36623800    3.02045000    1.57100400
| 85>  N                 -2.54042700   -3.70128300   -0.14221500
| 86>  C                 -0.66723000    2.88803400   -2.19699300
| 87>  H                 -1.10255100    3.75083800   -2.69400300
| 88>  H                 -2.51855300   -4.68767000   -0.39759300
| 89>  H                 -2.30835400    4.00716700    1.81823400
| 90> *
| 91>
| 92>                          ****END OF INPUT****
 Total Charge           Charge          ....    2
 Multiplicity           Mult            ....    1
 Number of Electrons    NEL             ....  196
E(0)                                       ...  -1408.710144784
E(0)                                       ...  -1408.710144784
E(CORR)(strong-pairs)                      ...     -3.732717462
E(CORR)(weak-pairs)                        ...     -0.029986452
E(CORR)(corrected)                         ...     -3.762703915
E(TOT)                                     ...  -1412.472848698
 Multiplicity           Mult            ....    1
 Number of Electrons    NEL             ....  196
 Basis Dimension        Dim             .... 1136
E(0)                                       ...  -1408.997568144
E(CORR)(strong-pairs)                      ...     -4.449026010
E(CORR)(weak-pairs)                        ...     -0.039389195
E(CORR)(corrected)                         ...     -4.488415205
E(TOT)                                     ...  -1413.485983349
E(CCSD(T))                                 ...  -1413.709888736
FINAL SINGLE POINT ENERGY     -1414.269254000109
                             ****ORCA TERMINATED NORMALLY****
TOTAL RUN TIME: 0 days 5 hours 3 minutes 43 seconds 259 msec
