                         Program Version 4.0.1.2 - RELEASE -
|  1> !CPCM DLPNO-CCSD(T) Extrapolate(2/3,cc)  RIJCOSX GRIDX5 TightSCF KDIIS
|  2> %cpcm
|  3> smd true
|  4> solvent "Ethanol"
|  5> end
|  6> # Number of processors
|  7> %pal nprocs 24 end
|  8> # Memory per core
|  9> %maxcore 4000
| 10> %scf maxiter 500
| 11>     end
| 12> % mdci
| 13>    # Loose cut-off
| 14>    #  TCutPairs 1e-3
| 15>    #  TCutPNO 1e-6
| 16>    #  TCutMKN 1e-3
| 17>    # Normal cut-off
| 18>      TCutPairs 1e-4
| 19>      TCutPNO 3.33e-7
| 20>      TCutMKN 1e-3
| 21>    # Tight cut-off
| 22>    #TCutPairs 1e-5
| 23>    #TCutPNO 1e-7
| 24>    #TCutMKN 1e-4
| 25>    # Faster/less disk-IO for large jobs
| 26>    #LocalTrafo 3
| 27>    Density None
| 28> end
| 29> % output
| 30>    printlevel mini
| 31>    print[ P_SCFInfo ] 1
| 32>    print[ P_SCFIterInfo ] 1
| 33>    print[ P_OrbEn ] 0
| 34>    print[ P_Cartesian ] 0
| 35> end
| 36> % elprop
| 37>    Dipole False
| 38> end
| 39> * xyz 2 1
| 40>  C                 -1.54057600    2.77247700   -2.16726400
| 41>  C                 -1.18487000    1.56584200   -1.60226600
| 42>  C                 -0.46552400    1.55162100   -0.40409600
| 43>  C                 -0.16357300    2.76627100    0.21682600
| 44>  C                 -0.57532000    3.94969900   -0.36172400
| 45>  H                 -2.07655900    2.86655300   -3.10312000
| 46>  H                 -1.48541500    0.65190100   -2.10244600
| 47>  H                  0.38874100    2.80741600    1.14958300
| 48>  H                 -0.39295300    4.92729500    0.06663400
| 49>  P                 -0.00515100   -0.03921800    0.51727600
| 50>  C                 -1.86710900   -0.51895200    0.44851400
| 51>  C                 -2.79175300    0.37761000    1.00953300
| 52>  C                 -2.36630800   -1.68047500   -0.14608000
| 53>  C                 -4.15907400    0.12637600    0.97582600
| 54>  H                 -2.44447400    1.29162000    1.48934000
| 55>  C                 -3.74044800   -1.93746300   -0.18794800
| 56>  H                 -1.70065000   -2.41608300   -0.58750700
| 57>  H                 -4.84957800    0.83833700    1.42055100
| 58>  H                 -4.10006100   -2.84863900   -0.65913600
| 59>  C                  1.83895400    0.54051000    0.61312100
| 60>  C                  2.42885800    0.98575300   -0.57957600
| 61>  C                  2.65364400    0.46510400    1.74930900
| 62>  C                  3.77211300    1.34747000   -0.64087400
| 63>  H                  1.84150400    1.05715100   -1.49294400
| 64>  C                  4.00141200    0.82881200    1.69643000
| 65>  H                  2.24016700    0.12133200    2.69039600
| 66>  H                  4.19617400    1.68856300   -1.58187500
| 67>  H                  4.60798200    0.76545800    2.59647200
| 68>  O                  0.06352200   -0.22121400    2.14800900
| 69>  C                  0.57398500   -1.49248900   -0.49714700
| 70>  C                  0.61783300   -1.54913000   -1.89335300
| 71>  C                  1.04981900   -2.58405400    0.24026500
| 72>  C                  1.12982100   -2.67172300   -2.50985900
| 73>  H                  0.27287600   -0.73518000   -2.51915300
| 74>  C                  1.54320700   -3.68834600   -0.42044900
| 75>  H                  1.04946400   -2.58775400    1.32542100
| 76>  H                  1.20249500   -2.78664800   -3.58400500
| 77>  H                  1.92350300   -4.56977200    0.08024800
| 78>  C                 -0.80782100   -0.95843600    3.01509900
| 79>  H                 -0.19265000   -1.22195400    3.87890200
| 80>  H                 -1.64568400   -0.33651200    3.33746800
| 81>  H                 -1.18134500   -1.87011100    2.54400600
| 82>  N                 -1.23379000    3.91607300   -1.53119300
| 83>  N                  1.56886000   -3.69812700   -1.76350900
| 84>  C                  4.56667300    1.27142300    0.50301900
| 85>  H                  5.61548800    1.55351500    0.46224800
| 86>  C                 -4.64082200   -1.03600400    0.37003900
| 87>  H                 -5.70875100   -1.23466800    0.33675900
| 88>  H                 -1.51935400    4.79753900   -1.95485100
| 89>  H                  1.94395000   -4.51837000   -2.23734400
| 90> *
| 91>                            ****END OF INPUT****
 Total Charge           Charge          ....    2
 Multiplicity           Mult            ....    1
 Number of Electrons    NEL             ....  196
E(0)                                       ...  -1408.607067252
E(0)                                       ...  -1408.607067252
E(CORR)(strong-pairs)                      ...     -3.754425753
E(CORR)(weak-pairs)                        ...     -0.032669751
E(CORR)(corrected)                         ...     -3.787095503
E(TOT)                                     ...  -1412.394162755
 Multiplicity           Mult            ....    1
 Number of Electrons    NEL             ....  196
 Basis Dimension        Dim             .... 1136
E(0)                                       ...  -1408.900022882
E(CORR)(strong-pairs)                      ...     -4.470831996
E(CORR)(weak-pairs)                        ...     -0.042353089
E(CORR)(corrected)                         ...     -4.513185086
E(TOT)                                     ...  -1413.413207968
E(CCSD(T))                                 ...  -1413.641883307
FINAL SINGLE POINT ENERGY     -1414.203377746289
                             ****ORCA TERMINATED NORMALLY****
TOTAL RUN TIME: 0 days 6 hours 35 minutes 8 seconds 441 msec
