                         Program Version 4.0.1.2 - RELEASE -
|  1> !CPCM DLPNO-CCSD(T) Extrapolate(2/3,cc)  RIJCOSX GRIDX5 TightSCF KDIIS
|  2> %cpcm
|  3> smd true
|  4> solvent "Ethanol"
|  5> end
|  6> # Number of processors
|  7> %pal nprocs 24 end
|  8> # Memory per core
|  9> %maxcore 4000
| 10> %scf maxiter 500
| 11>     end
| 12> % mdci
| 13>    # Loose cut-off
| 14>    #  TCutPairs 1e-3
| 15>    #  TCutPNO 1e-6
| 16>    #  TCutMKN 1e-3
| 17>    # Normal cut-off
| 18>      TCutPairs 1e-4
| 19>      TCutPNO 3.33e-7
| 20>      TCutMKN 1e-3
| 21>    # Tight cut-off
| 22>    #TCutPairs 1e-5
| 23>    #TCutPNO 1e-7
| 24>    #TCutMKN 1e-4
| 25>    # Faster/less disk-IO for large jobs
| 26>    #LocalTrafo 3
| 27>    Density None
| 28> end
| 29> % output
| 30>    printlevel mini
| 31>    print[ P_SCFInfo ] 1
| 32>    print[ P_SCFIterInfo ] 1
| 33>    print[ P_OrbEn ] 0
| 34>    print[ P_Cartesian ] 0
| 35> end
| 36> % elprop
| 37>    Dipole False
| 38> end
| 39> * xyz 2 1
| 40>  C                  0.57737500   -2.91071600   -2.52134800
| 41>  C                  0.21517400   -1.71955900   -1.89524300
| 42>  C                  0.34571600   -1.59170100   -0.51022700
| 43>  C                  0.83527300   -2.66683600    0.24065000
| 44>  C                  1.17926000   -3.86129900   -0.38819100
| 45>  H                  0.47903800   -2.99904800   -3.59975300
| 46>  H                 -0.16482900   -0.90379000   -2.50138500
| 47>  H                  0.95191700   -2.57916400    1.31849600
| 48>  H                  1.54882400   -4.69312400    0.20495600
| 49>  P                 -0.07648200   -0.08830900    0.45942300
| 50>  C                  1.87336100    0.29843600    0.57605600
| 51>  C                  2.54718300    0.54775900   -0.63129500
| 52>  C                  2.64646300    0.27743900    1.74356900
| 53>  C                  3.90710100    0.75677300   -0.65377600
| 54>  H                  2.01809100    0.57714700   -1.57950900
| 55>  C                  4.00994800    0.49286200    1.68588500
| 56>  H                  2.19731200    0.09180100    2.71037700
| 57>  H                  4.47730200    0.95027100   -1.55389700
| 58>  H                  4.65821600    0.48889000    2.55367300
| 59>  C                 -1.97799800   -0.30180800    0.41465400
| 60>  C                 -2.61178100   -1.46066200   -0.04448700
| 61>  C                 -2.78846600    0.74355700    0.88604100
| 62>  C                 -4.00510700   -1.56777200   -0.04861000
| 63>  H                 -2.03048800   -2.30530400   -0.40120100
| 64>  C                 -4.17624200    0.64183100    0.88916900
| 65>  H                 -2.33643700    1.65652500    1.26951200
| 66>  C                 -4.79186600   -0.51760100    0.41487400
| 67>  H                 -4.47091300   -2.47907900   -0.41485300
| 68>  H                 -4.77743700    1.46718400    1.26181400
| 69>  H                 -5.87546600   -0.60031300    0.41096000
| 70>  C                  1.05401500   -3.98457100   -1.77089000
| 71>  H                  1.32694500   -4.91407600   -2.26275500
| 72>  O                  0.01284300   -0.22594000    2.09066000
| 73>  C                 -0.26263100    1.57001100   -0.41866800
| 74>  C                  0.19576400    2.71266100    0.24267700
| 75>  C                 -0.90992900    1.71518000   -1.64820700
| 76>  C                  0.00932900    3.95412000   -0.33069300
| 77>  H                  0.69245200    2.65720500    1.20560700
| 78>  C                 -1.04110300    2.97127300   -2.20314100
| 79>  H                 -1.33322100    0.87014900   -2.17772800
| 80>  H                  0.32226400    4.88371600    0.12772800
| 81>  H                 -1.51112900    3.16156600   -3.15988100
| 82>  N                 -0.58479900    4.04163400   -1.53109700
| 83>  C                 -0.93909900   -0.83690900    2.97310900
| 84>  H                 -0.37949300   -1.04660200    3.88746700
| 85>  H                 -1.76114300   -0.15290300    3.19398800
| 86>  H                 -1.32853100   -1.77107100    2.56258200
| 87>  N                  4.59758800    0.72326800    0.50111900
| 88>  H                  5.60299600    0.87978800    0.47478200
| 89>  H                 -0.70174900    4.96324800   -1.94919700
| 90> *
| 91>
| 92>                          ****END OF INPUT****
 Total Charge           Charge          ....    2
 Multiplicity           Mult            ....    1
 Number of Electrons    NEL             ....  196
E(0)                                       ...  -1408.619746558
E(0)                                       ...  -1408.619746558
E(CORR)(strong-pairs)                      ...     -3.751753745
E(CORR)(weak-pairs)                        ...     -0.033138375
E(CORR)(corrected)                         ...     -3.784892120
E(TOT)                                     ...  -1412.404638678
 Multiplicity           Mult            ....    1
 Number of Electrons    NEL             ....  196
 Basis Dimension        Dim             .... 1136
E(0)                                       ...  -1408.912001867
E(CORR)(strong-pairs)                      ...     -4.468424504
E(CORR)(weak-pairs)                        ...     -0.042643527
E(CORR)(corrected)                         ...     -4.511068031
E(TOT)                                     ...  -1413.423069898
E(CCSD(T))                                 ...  -1413.651013326
FINAL SINGLE POINT ENERGY     -1414.212305297019
                             ****ORCA TERMINATED NORMALLY****
TOTAL RUN TIME: 0 days 6 hours 28 minutes 15 seconds 527 msec
