                         Program Version 4.0.1.2 - RELEASE -
|  1> !CPCM DLPNO-CCSD(T) Extrapolate(2/3,cc)  RIJCOSX GRIDX5 TightSCF KDIIS
|  2> %cpcm
|  3> smd true
|  4> solvent "Ethanol"
|  5> end
|  6> # Number of processors
|  7> %pal nprocs 24 end
|  8> # Memory per core
|  9> %maxcore 4000
| 10> %scf maxiter 500
| 11>     end
| 12> % mdci
| 13>    # Loose cut-off
| 14>    #  TCutPairs 1e-3
| 15>    #  TCutPNO 1e-6
| 16>    #  TCutMKN 1e-3
| 17>    # Normal cut-off
| 18>      TCutPairs 1e-4
| 19>      TCutPNO 3.33e-7
| 20>      TCutMKN 1e-3
| 21>    # Tight cut-off
| 22>    #TCutPairs 1e-5
| 23>    #TCutPNO 1e-7
| 24>    #TCutMKN 1e-4
| 25>    # Faster/less disk-IO for large jobs
| 26>    #LocalTrafo 3
| 27>    Density None
| 28> end
| 29> % output
| 30>    printlevel mini
| 31>    print[ P_SCFInfo ] 1
| 32>    print[ P_SCFIterInfo ] 1
| 33>    print[ P_OrbEn ] 0
| 34>    print[ P_Cartesian ] 0
| 35> end
| 36> % elprop
| 37>    Dipole False
| 38> end
| 39> * xyz 2 1
| 40>  C                  0.65065300    4.15340900   -0.69119200
| 41>  C                  0.66043000    2.77526700   -0.89158000
| 42>  C                 -0.15293700    1.94380900   -0.11356400
| 43>  C                 -0.99666800    2.51213300    0.84460000
| 44>  C                 -1.03013700    3.89367400    1.01828200
| 45>  H                  1.29897500    4.78679900   -1.29000300
| 46>  H                  1.30035100    2.35341400   -1.66101600
| 47>  H                 -1.63117800    1.89303200    1.46900000
| 48>  H                 -1.70108000    4.32390500    1.75637500
| 49>  P                 -0.09724000    0.13285000   -0.40781500
| 50>  C                 -1.73997800   -0.78596900   -0.34094100
| 51>  C                 -2.15617800   -1.58775800   -1.40658200
| 52>  C                 -2.57099300   -0.68097600    0.77883400
| 53>  C                 -3.36377500   -2.25426300   -1.33336400
| 54>  H                 -1.56067100   -1.69447500   -2.30378700
| 55>  C                 -3.78543900   -1.33599100    0.79657600
| 56>  H                 -2.29200600   -0.10883200    1.65482600
| 57>  H                 -3.74262100   -2.89884300   -2.11640300
| 58>  H                 -4.48565400   -1.28262300    1.62069500
| 59>  C                  0.34607300   -0.40133500    1.38845900
| 60>  C                  0.23575100   -1.75980600    1.72424900
| 61>  C                  0.93731700    0.45427500    2.32453900
| 62>  C                  0.67163100   -2.24194100    2.95545700
| 63>  H                 -0.19049600   -2.46852500    1.01531000
| 64>  C                  1.37545900   -0.02218600    3.56211100
| 65>  H                  1.07138400    1.50859700    2.10201200
| 66>  H                  0.56821600   -3.29870200    3.18817700
| 67>  H                  1.82372200    0.66710500    4.27308700
| 68>  C                 -0.19955300    4.71605800    0.25916600
| 69>  H                 -0.21724400    5.79235400    0.40627000
| 70>  O                 -0.29004900    0.33966000   -2.14722800
| 71>  C                  1.51567100   -0.64736400   -0.92844200
| 72>  C                  2.72390800   -0.02907800   -0.58547500
| 73>  C                  1.55206200   -1.87619600   -1.59640900
| 74>  C                  3.91599800   -0.63031200   -0.92581000
| 75>  H                  2.75648700    0.91121900   -0.04623700
| 76>  C                  2.76936000   -2.44963300   -1.89635900
| 77>  H                  0.65147700   -2.40218500   -1.88819300
| 78>  H                  4.88711400   -0.20620600   -0.70369500
| 79>  H                  2.87637500   -3.39997000   -2.40395200
| 80>  C                 -1.34328800    1.10322600   -2.71177100
| 81>  H                 -0.95972600    2.06530900   -3.07203900
| 82>  H                 -1.76406000    0.54824900   -3.55797500
| 83>  H                 -2.15308900    1.30599600   -1.99774400
| 84>  N                 -4.13786800   -2.10048900   -0.24905600
| 85>  H                 -5.03488000   -2.58375500   -0.21777200
| 86>  C                  1.24080400   -1.37016100    3.88428300
| 87>  H                  1.58071600   -1.74114300    4.84748900
| 88>  N                  3.90440300   -1.81435000   -1.56141600
| 89>  H                  4.79412000   -2.25018500   -1.79647700
| 90> *
| 91>                            ****END OF INPUT****
 Total Charge           Charge          ....    2
 Multiplicity           Mult            ....    1
 Number of Electrons    NEL             ....  196
E(0)                                       ...  -1408.627843319
E(0)                                       ...  -1408.627843319
E(CORR)(strong-pairs)                      ...     -3.752987685
E(CORR)(weak-pairs)                        ...     -0.032479140
E(CORR)(corrected)                         ...     -3.785466826
E(TOT)                                     ...  -1412.413310145
 Multiplicity           Mult            ....    1
 Number of Electrons    NEL             ....  196
 Basis Dimension        Dim             .... 1136
E(0)                                       ...  -1408.917020691
E(CORR)(strong-pairs)                      ...     -4.470028202
E(CORR)(weak-pairs)                        ...     -0.042565859
E(CORR)(corrected)                         ...     -4.512594060
E(TOT)                                     ...  -1413.429614752
E(CCSD(T))                                 ...  -1413.657421244
FINAL SINGLE POINT ENERGY     -1414.218356118681
                             ****ORCA TERMINATED NORMALLY****
TOTAL RUN TIME: 0 days 6 hours 36 minutes 57 seconds 481 msec
