                         Program Version 4.0.1.2 - RELEASE -
|  1> !CPCM DLPNO-CCSD(T) Extrapolate(2/3,cc)  RIJCOSX GRIDX5 TightSCF KDIIS
|  2> %cpcm
|  3> smd true
|  4> solvent "Ethanol"
|  5> end
|  6> # Number of processors
|  7> %pal nprocs 24 end
|  8> # Memory per core
|  9> %maxcore 4000
| 10> %scf maxiter 500
| 11>     end
| 12> % mdci
| 13>    # Loose cut-off
| 14>    #  TCutPairs 1e-3
| 15>    #  TCutPNO 1e-6
| 16>    #  TCutMKN 1e-3
| 17>    # Normal cut-off
| 18>      TCutPairs 1e-4
| 19>      TCutPNO 3.33e-7
| 20>      TCutMKN 1e-3
| 21>    # Tight cut-off
| 22>    #TCutPairs 1e-5
| 23>    #TCutPNO 1e-7
| 24>    #TCutMKN 1e-4
| 25>    # Faster/less disk-IO for large jobs
| 26>    #LocalTrafo 3
| 27>    Density None
| 28> end
| 29> % output
| 30>    printlevel mini
| 31>    print[ P_SCFInfo ] 1
| 32>    print[ P_SCFIterInfo ] 1
| 33>    print[ P_OrbEn ] 0
| 34>    print[ P_Cartesian ] 0
| 35> end
| 36> % elprop
| 37>    Dipole False
| 38> end
| 39> * xyz 2 1
| 40>  C                 -1.23504100    2.94139700   -2.16830100
| 41>  C                 -1.05029900    1.70548000   -1.55448400
| 42>  C                 -0.25268900    1.60098600   -0.40930800
| 43>  C                  0.31583600    2.75445100    0.13868500
| 44>  C                  0.09748800    3.99616700   -0.45475100
| 45>  H                 -1.83666000    3.00776000   -3.07038500
| 46>  H                 -1.54157800    0.83097200   -1.97164900
| 47>  H                  0.92704800    2.69558800    1.03579500
| 48>  H                  0.53084900    4.88781600   -0.01068900
| 49>  P                 -0.00016000   -0.00588800    0.46055100
| 50>  C                 -1.95145700   -0.28923900    0.45622800
| 51>  C                 -2.77218900    0.71877200    0.98975800
| 52>  C                 -2.58587100   -1.41804400   -0.07173200
| 53>  C                 -4.14201200    0.58724200    0.98775300
| 54>  H                 -2.34741900    1.62377700    1.41347100
| 55>  C                 -3.96469400   -1.51493000   -0.06467700
| 56>  H                 -2.02688800   -2.24337400   -0.49702600
| 57>  H                 -4.82511400    1.32666200    1.38679200
| 58>  H                 -4.51176500   -2.36094000   -0.46216100
| 59>  C                  1.94277100    0.31122100    0.58375100
| 60>  C                  2.71406200    0.13816800    1.73977300
| 61>  C                  2.62914800    0.62891700   -0.60060600
| 62>  C                  4.08731800    0.28287700    1.69546400
| 63>  H                  2.25584400   -0.11031500    2.68814300
| 64>  C                  3.99833700    0.76350600   -0.60982600
| 65>  H                  2.10179600    0.77617200   -1.53790300
| 66>  H                  4.73386700    0.16522500    2.55641100
| 67>  H                  4.57796000    1.00754800   -1.49139600
| 68>  C                 -0.66617100    4.08929600   -1.61667400
| 69>  H                 -0.82428500    5.05516200   -2.08851100
| 70>  O                  0.04429000   -0.13207500    2.09197800
| 71>  C                  0.36260900   -1.50323500   -0.53355400
| 72>  C                  0.33116000   -1.52739200   -1.93020200
| 73>  C                  0.70483200   -2.66101000    0.17377100
| 74>  C                  0.63693900   -2.70404900   -2.61155200
| 75>  H                  0.07782600   -0.63749800   -2.49780400
| 76>  C                  1.00039600   -3.83681800   -0.51268400
| 77>  H                  0.74429500   -2.65396800    1.26066500
| 78>  H                  0.61526200   -2.71421000   -3.69782200
| 79>  H                  1.25989800   -4.73297300    0.04405700
| 80>  C                 -0.86316500   -0.80784100    2.97307300
| 81>  H                 -0.26740100   -1.06911000    3.85035100
| 82>  H                 -1.67892300   -0.14474600    3.27030800
| 83>  H                 -1.26318300   -1.72085500    2.52569100
| 84>  C                  0.96674500   -3.86056400   -1.90619100
| 85>  H                  1.20026700   -4.77677300   -2.44142700
| 86>  N                  4.68645000    0.58797800    0.53406800
| 87>  N                 -4.69592200   -0.52018100    0.45913400
| 88>  H                  5.69844600    0.69407500    0.51715800
| 89>  H                 -5.71009000   -0.60780400    0.45914500
| 90> *
| 91>                            ****END OF INPUT****
 Total Charge           Charge          ....    2
 Multiplicity           Mult            ....    1
 Number of Electrons    NEL             ....  196
E(0)                                       ...  -1408.630323910
E(0)                                       ...  -1408.630323910
E(CORR)(strong-pairs)                      ...     -3.750987970
E(CORR)(weak-pairs)                        ...     -0.031967047
E(CORR)(corrected)                         ...     -3.782955017
E(TOT)                                     ...  -1412.413278927
 Multiplicity           Mult            ....    1
 Number of Electrons    NEL             ....  196
 Basis Dimension        Dim             .... 1136
E(0)                                       ...  -1408.922490340
E(CORR)(strong-pairs)                      ...     -4.467881434
E(CORR)(weak-pairs)                        ...     -0.041201766
E(CORR)(corrected)                         ...     -4.509083200
E(TOT)                                     ...  -1413.431573541
E(CCSD(T))                                 ...  -1413.659291711
FINAL SINGLE POINT ENERGY     -1414.220428648660
                             ****ORCA TERMINATED NORMALLY****
TOTAL RUN TIME: 0 days 6 hours 43 minutes 55 seconds 332 msec
