 Gaussian 16, Revision A.03,
 Gaussian 16:  ES64L-G16RevA.03 25-Dec-2016

 ----------------------------------------------------------------------
 # opt=(maxcycle=200) scrf=(solvent=ethanol,smd) freq=noraman wb97xd/6-
 31+g(d) geom=connectivity
 ----------------------------------------------------------------------

 -------------------
 Title Card Required
 -------------------
 Symbolic Z-matrix:
 Charge =  2 Multiplicity = 1

 SCF Done:  E(RwB97XD) =  -1415.75306433     A.U. after   17 cycles
 SCF Done:  E(RwB97XD) =  -1415.75394045     A.U. after   18 cycles
 SCF Done:  E(RwB97XD) =  -1415.76007604     A.U. after   16 cycles
 SCF Done:  E(RwB97XD) =  -1415.68059798     A.U. after   20 cycles
 SCF Done:  E(RwB97XD) =  -1415.76126141     A.U. after   16 cycles
 SCF Done:  E(RwB97XD) =  -1415.76331796     A.U. after   16 cycles
 SCF Done:  E(RwB97XD) =  -1415.76403833     A.U. after   16 cycles
 SCF Done:  E(RwB97XD) =  -1415.75793045     A.U. after   18 cycles
 SCF Done:  E(RwB97XD) =  -1415.76473198     A.U. after   15 cycles
 SCF Done:  E(RwB97XD) =  -1415.76518890     A.U. after   17 cycles
 SCF Done:  E(RwB97XD) =  -1415.76628443     A.U. after   13 cycles
 SCF Done:  E(RwB97XD) =  -1415.76628777     A.U. after   14 cycles
 SCF Done:  E(RwB97XD) =  -1415.76628435     A.U. after   13 cycles
 SCF Done:  E(RwB97XD) =  -1415.76628334     A.U. after   11 cycles
 SCF Done:  E(RwB97XD) =  -1415.76628776     A.U. after   14 cycles
 SCF Done:  E(RwB97XD) =  -1415.76628395     A.U. after   14 cycles
 SCF Done:  E(RwB97XD) =  -1415.76628361     A.U. after   12 cycles
 SCF Done:  E(RwB97XD) =  -1415.76628776     A.U. after   13 cycles
 SCF Done:  E(RwB97XD) =  -1415.76628347     A.U. after   14 cycles
 Optimization completed.
    -- Stationary point found.
 Normal termination of Gaussian 16 at Thu Mar 29 02:12:48 2018.

 ----------------------------------------------------------------------
 #N Geom=AllCheck Guess=TCheck SCRF=Check GenChk RwB97XD/6-31+G(d) Freq
 ----------------------------------------------------------------------

 Structure from the checkpoint file:  "T11eqwdrSazng.chk"
 -------------------
 Title Card Required
 -------------------
 Charge =  2 Multiplicity = 1

                         Standard orientation:
 ---------------------------------------------------------------------
 Center     Atomic      Atomic             Coordinates (Angstroms)
 Number     Number       Type             X           Y           Z
 ---------------------------------------------------------------------
      1          6           0        1.305517   -1.215327   -2.674934
      2          6           0        0.343384   -1.120204   -1.668476
      3          6           0        0.622146   -1.569893   -0.374348
      4          6           0        1.889533   -2.108484   -0.104695
      5          6           0        2.843718   -2.218380   -1.111741
      6          1           0        1.072860   -0.860232   -3.675489
      7          1           0       -0.626602   -0.693049   -1.904763
      8          1           0        2.134164   -2.446545    0.900432
      9          1           0        3.817829   -2.645543   -0.888570
     10         15           0       -0.538055   -1.443058    1.043205
     11          6           0        1.840403    1.634121    0.406035
     12          6           0        2.145607    1.088232    1.658450
     13          6           0        2.770085    1.510577   -0.631415
     14          6           0        3.350839    0.445496    1.842739
     15          1           0        1.450869    1.135210    2.488261
     16          6           0        3.963190    0.858511   -0.398540
     17          1           0        2.590222    1.927480   -1.615141
     18          1           0        3.652610   -0.008210    2.778052
     19          1           0        4.731399    0.726792   -1.149461
     20          6           0       -2.108785   -0.922984    0.250196
     21          6           0       -2.655969    0.308418    0.622707
     22          6           0       -2.794614   -1.723937   -0.673445
     23          6           0       -3.852637    0.752727    0.058700
     24          1           0       -2.147851    0.924223    1.362531
     25          6           0       -3.994085   -1.287371   -1.228204
     26          1           0       -2.386405   -2.689495   -0.962017
     27          6           0       -4.521157   -0.044558   -0.867459
     28          1           0       -4.265659    1.714758    0.350852
     29          1           0       -4.518983   -1.913781   -1.944583
     30          1           0       -5.456818    0.295452   -1.303444
     31          6           0        2.553787   -1.768630   -2.401183
     32          1           0        3.301138   -1.846135   -3.186372
     33          8           0       -0.774059   -3.093995    1.232284
     34          6           0        0.545277    2.325107    0.180398
     35          6           0       -0.054724    3.071091    1.201667
     36          6           0       -0.096160    2.239698   -1.060169
     37          6           0       -1.259759    3.699364    0.965079
     38          1           0        0.409060    3.190556    2.173744
     39          6           0       -1.304592    2.876993   -1.246561
     40          1           0        0.322173    1.668748   -1.879651
     41          1           0       -1.779784    4.296976    1.702869
     42          1           0       -1.864615    2.843889   -2.172150
     43          7           0       -1.842126    3.581885   -0.238665
     44          6           0       -1.528922   -3.482009    2.380831
     45          1           0       -1.493147   -4.572652    2.427963
     46          1           0       -1.096380   -3.063661    3.298634
     47          1           0       -2.574144   -3.160615    2.291182
     48          7           0        4.215550    0.355456    0.819722
     49          1           0        5.100579   -0.125037    0.972673
     50          1           0       -2.735690    4.045972   -0.393079
 ---------------------------------------------------------------------

 SCF Done:  E(RwB97XD) =  -1415.76628347     A.U. after    2 cycles

 The electronic state is 1-A.
 Alpha  occ. eigenvalues --  -77.28973 -19.29746 -14.58572 -14.58391 -10.40354
 Alpha  occ. eigenvalues --  -10.40334 -10.40237 -10.40145 -10.38940 -10.38829
 Alpha  occ. eigenvalues --  -10.36011 -10.35921 -10.35868 -10.35824 -10.34181
 Alpha  occ. eigenvalues --  -10.32271 -10.31928 -10.31869 -10.31810 -10.31731
 Alpha  occ. eigenvalues --  -10.31727 -10.31676 -10.31550 -10.31471 -10.31435
 Alpha  occ. eigenvalues --  -10.31409 -10.31370  -6.71222  -4.86246  -4.85969
 Alpha  occ. eigenvalues --   -4.85490  -1.15317  -1.15137  -1.13594  -1.00637
 Alpha  occ. eigenvalues --   -0.97278  -0.96800  -0.95001  -0.93289  -0.92832
 Alpha  occ. eigenvalues --   -0.87628  -0.85861  -0.85782  -0.85294  -0.83384
 Alpha  occ. eigenvalues --   -0.80694  -0.79715  -0.78396  -0.75727  -0.73444
 Alpha  occ. eigenvalues --   -0.71729  -0.71312  -0.71141  -0.70756  -0.69991
 Alpha  occ. eigenvalues --   -0.66404  -0.65520  -0.64157  -0.62010  -0.61870
 Alpha  occ. eigenvalues --   -0.60854  -0.60110  -0.59160  -0.57620  -0.57478
 Alpha  occ. eigenvalues --   -0.56692  -0.56188  -0.56163  -0.55605  -0.55406
 Alpha  occ. eigenvalues --   -0.54326  -0.54033  -0.53933  -0.53679  -0.52787
 Alpha  occ. eigenvalues --   -0.51567  -0.51295  -0.51111  -0.49507  -0.48959
 Alpha  occ. eigenvalues --   -0.48911  -0.47498  -0.46789  -0.46144  -0.45691
 Alpha  occ. eigenvalues --   -0.43451  -0.43427  -0.42529  -0.41607  -0.39918
 Alpha  occ. eigenvalues --   -0.39404  -0.39299  -0.38441  -0.35284  -0.34542
 Alpha  occ. eigenvalues --   -0.34326  -0.33895  -0.30929
 Alpha virt. eigenvalues --   -0.06095   0.00413   0.00558   0.00690   0.02281
 Alpha virt. eigenvalues --    0.03807   0.04287   0.05060   0.05186   0.05601
 Alpha virt. eigenvalues --    0.06241   0.06550   0.07314   0.07578   0.08042

 Mulliken charges:
               1
     1  C   -0.746459
     2  C    0.373641
     3  C   -0.079389
     4  C   -0.248019
     5  C   -0.473084
     6  H    0.249236
     7  H    0.260544
     8  H    0.254043
     9  H    0.249344
    10  P    0.714932
    11  C    0.201856
    12  C    0.301191
    13  C    0.281861
    14  C   -0.826514
    15  H    0.312466
    16  C   -0.717408
    17  H    0.309575
    18  H    0.324698
    19  H    0.328349
    20  C   -1.287350
    21  C   -0.385951
    22  C    1.144858
    23  C   -0.393518
    24  H    0.248058
    25  C   -0.354102
    26  H    0.259646
    27  C   -0.267362
    28  H    0.246741
    29  H    0.250332
    30  H    0.250237
    31  C   -0.193625
    32  H    0.249927
    33  O   -0.458487
    34  C    0.133928
    35  C    0.604136
    36  C    0.497299
    37  C   -0.603813
    38  H    0.308374
    39  C   -1.049433
    40  H    0.312589
    41  H    0.326153
    42  H    0.328490
    43  N   -0.294991
    44  C   -0.482467
    45  H    0.238182
    46  H    0.228125
    47  H    0.237841
    48  N   -0.298764
    49  H    0.566381
    50  H    0.567702
 Sum of Mulliken charges =   2.00000

 Dipole moment (field-independent basis, Debye):
    X=              9.5919    Y=             18.8517    Z=              1.7411  Tot=             21.2231
 Quadrupole moment (field-independent basis, Debye-Ang):
   XX=            -47.1272   YY=            -99.9903   ZZ=           -124.3047
   XY=            -25.3618   XZ=             13.9647   YZ=             -1.6594

  Exact polarizability: 478.077 -85.978 341.412  10.596   0.118 423.381
 Approx polarizability: 357.152 -61.379 272.327  11.402   1.833 339.466

                      1                      2                      3
                      A                      A                      A
 Frequencies --     17.4105                29.0248                32.2091
 Red. masses --      5.5351                 4.9685                 4.5534
 Frc consts  --      0.0010                 0.0025                 0.0028
 IR Inten    --      1.1752                 3.7398                 4.9281

                      4                      5                      6
                      A                      A                      A
 Frequencies --     33.5922                40.1194                64.2579
 Red. masses --      5.4770                 5.1388                 3.7876
 Frc consts  --      0.0036                 0.0049                 0.0092
 IR Inten    --      5.3223                 3.3588                 0.7186

                      7                      8                      9
                      A                      A                      A
 Frequencies --     68.8603                76.7744                81.1132
 Red. masses --      3.7098                 3.9170                 4.1373
 Frc consts  --      0.0104                 0.0136                 0.0160
 IR Inten    --      2.2932                 1.6512                 5.1188

                     10                     11                     12
                      A                      A                      A
 Frequencies --     92.7960               101.9101               117.5471
 Red. masses --      4.4939                 4.5160                 4.6560
 Frc consts  --      0.0228                 0.0276                 0.0379
 IR Inten    --      2.0037                 8.9821                 4.9116

                     13                     14                     15
                      A                      A                      A
 Frequencies --    121.7614               138.0086               142.2984
 Red. masses --      4.2162                 1.3150                 4.1716
 Frc consts  --      0.0368                 0.0148                 0.0498
 IR Inten    --     13.3465                 1.1097                 5.1604

                     16                     17                     18
                      A                      A                      A
 Frequencies --    194.5903               211.7377               242.2515
 Red. masses --      2.9547                 4.4854                 4.0810
 Frc consts  --      0.0659                 0.1185                 0.1411
 IR Inten    --      8.7690                 1.2085                 6.1316

                     19                     20                     21
                      A                      A                      A
 Frequencies --    257.6474               262.9208               309.3833
 Red. masses --      4.2975                 5.2013                 4.5226
 Frc consts  --      0.1681                 0.2118                 0.2551
 IR Inten    --      0.2232                 0.3409                 4.7081

                     22                     23                     24
                      A                      A                      A
 Frequencies --    314.6739               345.3349               374.6860
 Red. masses --      6.6726                 5.8314                 4.1237
 Frc consts  --      0.3893                 0.4097                 0.3411
 IR Inten    --      0.0189                 1.2966                 0.4573

                     25                     26                     27
                      A                      A                      A
 Frequencies --    409.7735               412.7909               416.0399
 Red. masses --      2.7708                 2.7954                 2.9429
 Frc consts  --      0.2741                 0.2806                 0.3001
 IR Inten    --      0.9466                 0.1464                 1.9241

                     28                     29                     30
                      A                      A                      A
 Frequencies --    422.9656               439.1087               466.5656
 Red. masses --      2.9166                 5.5004                10.1451
 Frc consts  --      0.3074                 0.6249                 1.3012
 IR Inten    --      1.4396                 7.6917                79.4652

                     31                     32                     33
                      A                      A                      A
 Frequencies --    496.8229               501.6737               534.5966
 Red. masses --      3.7109                 3.8071                 4.5803
 Frc consts  --      0.5397                 0.5645                 0.7712
 IR Inten    --     30.2542                17.7611                60.4522

                     34                     35                     36
                      A                      A                      A
 Frequencies --    566.0142               632.5266               633.5232
 Red. masses --      2.8197                 7.1515                 6.4475
 Frc consts  --      0.5322                 1.6858                 1.5246
 IR Inten    --      8.3224                 5.0212                 1.6793

                     37                     38                     39
                      A                      A                      A
 Frequencies --    635.4742               655.0285               670.0804
 Red. masses --      6.4223                 6.5354                 6.3964
 Frc consts  --      1.5280                 1.6521                 1.6922
 IR Inten    --      0.5842                 0.1578                 1.0733

                     40                     41                     42
                      A                      A                      A
 Frequencies --    707.1440               717.8939               721.5333
 Red. masses --      6.6095                 2.5057                 3.7526
 Frc consts  --      1.9473                 0.7608                 1.1511
 IR Inten    --     44.3409               142.7140                14.2155

                     43                     44                     45
                      A                      A                      A
 Frequencies --    724.7231               727.8371               728.4676
 Red. masses --      1.9639                 3.6565                 5.3814
 Frc consts  --      0.6077                 1.1413                 1.6825
 IR Inten    --     58.0813                48.7812               217.9072

                     46                     47                     48
                      A                      A                      A
 Frequencies --    745.5337               764.8670               769.9165
 Red. masses --      1.8683                 1.1992                 1.6847
 Frc consts  --      0.6118                 0.4134                 0.5884
 IR Inten    --     14.7125               407.8021                61.7830

                     49                     50                     51
                      A                      A                      A
 Frequencies --    776.6137               784.4711               801.1035
 Red. masses --      1.8859                 5.2947                 1.6910
 Frc consts  --      0.6702                 1.9197                 0.6394
 IR Inten    --     17.6989                 2.7194                33.9420

                     52                     53                     54
                      A                      A                      A
 Frequencies --    878.5507               881.2256               886.8239
 Red. masses --      1.2545                 1.2515                 1.2556
 Frc consts  --      0.5705                 0.5726                 0.5818
 IR Inten    --      0.4749                 0.7022                 1.5311

                     55                     56                     57
                      A                      A                      A
 Frequencies --    889.7526               917.5497               938.0000
 Red. masses --      1.2514                 1.3195                 1.5614
 Frc consts  --      0.5837                 0.6545                 0.8094
 IR Inten    --      0.0404                 0.6281                 2.8809

                     58                     59                     60
                      A                      A                      A
 Frequencies --    961.6631               972.2501              1015.0015
 Red. masses --      1.3518                 1.3347                 1.3966
 Frc consts  --      0.7366                 0.7434                 0.8477
 IR Inten    --      1.0064                 3.9553                 0.0926

                     61                     62                     63
                      A                      A                      A
 Frequencies --   1016.3847              1018.6828              1019.1874
 Red. masses --      1.4183                 1.5203                 2.1423
 Frc consts  --      0.8632                 0.9295                 1.3111
 IR Inten    --      1.6503                 1.9957                 2.1115

                     64                     65                     66
                      A                      A                      A
 Frequencies --   1022.3398              1022.8529              1027.3443
 Red. masses --      2.1654                 1.9733                 1.4664
 Frc consts  --      1.3335                 1.2164                 0.9119
 IR Inten    --      4.0181                 2.8886                 9.4449

                     67                     68                     69
                      A                      A                      A
 Frequencies --   1028.1772              1034.6874              1036.3308
 Red. masses --      1.7516                 1.3324                 2.2796
 Frc consts  --      1.0910                 0.8404                 1.4425
 IR Inten    --      2.2233                 0.0266                 2.6256

                     70                     71                     72
                      A                      A                      A
 Frequencies --   1037.2475              1042.3665              1061.2313
 Red. masses --      2.0756                 5.3669                 2.7564
 Frc consts  --      1.3157                 3.4357                 1.8290
 IR Inten    --      2.7587                 0.0949                 3.3708

                     73                     74                     75
                      A                      A                      A
 Frequencies --   1062.3928              1070.3595              1082.2576
 Red. masses --      2.7733                 6.1644                 9.4282
 Frc consts  --      1.8442                 4.1610                 6.5064
 IR Inten    --      5.1158                 0.5550               380.6978

                     76                     77                     78
                      A                      A                      A
 Frequencies --   1096.3363              1113.7501              1115.2481
 Red. masses --      1.7377                 2.0472                 1.6411
 Frc consts  --      1.2306                 1.4962                 1.2026
 IR Inten    --     18.4886                 5.7171                 7.4702

                     79                     80                     81
                      A                      A                      A
 Frequencies --   1118.3620              1138.9624              1140.1782
 Red. masses --      1.6216                 2.8989                 2.8145
 Frc consts  --      1.1950                 2.2157                 2.1557
 IR Inten    --      9.8103                62.8428                37.5643

                     82                     83                     84
                      A                      A                      A
 Frequencies --   1142.0292              1159.4544              1188.7910
 Red. masses --      1.4692                 1.6411                 1.0989
 Frc consts  --      1.1290                 1.2998                 0.9150
 IR Inten    --      6.3143                13.6782                 0.3446

                     85                     86                     87
                      A                      A                      A
 Frequencies --   1189.4928              1194.1407              1217.2961
 Red. masses --      1.1025                 1.2682                 1.1549
 Frc consts  --      0.9191                 1.0655                 1.0083
 IR Inten    --      0.7641                 1.9374                 3.5949

                     88                     89                     90
                      A                      A                      A
 Frequencies --   1218.8162              1220.7518              1235.6324
 Red. masses --      1.3132                 1.1323                 1.1733
 Frc consts  --      1.1494                 0.9942                 1.0555
 IR Inten    --     12.1150                 2.4321                14.9877

                     91                     92                     93
                      A                      A                      A
 Frequencies --   1258.3783              1293.6355              1302.2223
 Red. masses --      1.1630                 1.6673                 1.5209
 Frc consts  --      1.0850                 1.6439                 1.5195
 IR Inten    --      3.6238                61.6862                 8.6099

                     94                     95                     96
                      A                      A                      A
 Frequencies --   1331.0626              1332.1950              1336.8939
 Red. masses --      3.3468                 2.6428                 3.5298
 Frc consts  --      3.4936                 2.7634                 3.7170
 IR Inten    --      1.5521                 0.3296                 4.7106

                     97                     98                     99
                      A                      A                      A
 Frequencies --   1343.1234              1364.2215              1370.0101
 Red. masses --      1.6200                 2.2002                 1.6523
 Frc consts  --      1.7219                 2.4126                 1.8272
 IR Inten    --     12.1043                 7.0729                 2.0722

                    100                    101                    102
                      A                      A                      A
 Frequencies --   1370.6308              1397.4319              1411.1264
 Red. masses --      1.6074                 1.9174                 1.9291
 Frc consts  --      1.7791                 2.2061                 2.2632
 IR Inten    --      4.9622                20.9412                66.1943

                    103                    104                    105
                      A                      A                      A
 Frequencies --   1483.6562              1487.7096              1501.3319
 Red. masses --      2.1404                 2.1654                 1.1255
 Frc consts  --      2.7759                 2.8238                 1.4947
 IR Inten    --     18.1043                37.9772                 2.4423

                    106                    107                    108
                      A                      A                      A
 Frequencies --   1508.5106              1517.5772              1538.0713
 Red. masses --      1.0546                 1.0435                 2.0906
 Frc consts  --      1.4140                 1.4160                 2.9139
 IR Inten    --     18.9268                15.1225                 3.2362

                    109                    110                    111
                      A                      A                      A
 Frequencies --   1539.8781              1548.4115              1549.6208
 Red. masses --      2.0827                 2.1616                 2.1560
 Frc consts  --      2.9097                 3.0534                 3.0503
 IR Inten    --     12.1551                90.7373                81.9438

                    112                    113                    114
                      A                      A                      A
 Frequencies --   1585.1623              1587.2849              1653.8414
 Red. masses --      2.4270                 2.3453                 5.4690
 Frc consts  --      3.5931                 3.4814                 8.8135
 IR Inten    --      6.8840                 7.7922                 0.0025

                    115                    116                    117
                      A                      A                      A
 Frequencies --   1656.6609              1672.4190              1672.8789
 Red. masses --      5.6016                 5.6466                 5.6651
 Frc consts  --      9.0579                 9.3053                 9.3408
 IR Inten    --      2.6995                 0.4665                 3.3352

                    118                    119                    120
                      A                      A                      A
 Frequencies --   1680.0700              1690.2560              1715.6853
 Red. masses --      3.4548                 4.3053                 5.5184
 Frc consts  --      5.7455                 7.2471                 9.5706
 IR Inten    --    182.6549                14.1332               360.1238

                    121                    122                    123
                      A                      A                      A
 Frequencies --   1733.2917              3047.4840              3119.9697
 Red. masses --      5.6389                 1.0325                 1.1071
 Frc consts  --      9.9813                 5.6497                 6.3497
 IR Inten    --      1.0658                87.0015                53.4467

                    124                    125                    126
                      A                      A                      A
 Frequencies --   3174.5903              3200.8923              3208.0327
 Red. masses --      1.1028                 1.0889                 1.0868
 Frc consts  --      6.5484                 6.5735                 6.5896
 IR Inten    --     27.9388                 5.0635                 1.5181

                    127                    128                    129
                      A                      A                      A
 Frequencies --   3213.0258              3213.7411              3219.9795
 Red. masses --      1.0880                 1.0879                 1.0918
 Frc consts  --      6.6178                 6.6201                 6.6696
 IR Inten    --      0.0322                 0.9062                 4.9798

                    130                    131                    132
                      A                      A                      A
 Frequencies --   3221.6551              3226.9657              3231.5570
 Red. masses --      1.0926                 1.0953                 1.0948
 Frc consts  --      6.6812                 6.7203                 6.7364
 IR Inten    --     22.6239                37.5583                21.7756

                    133                    134                    135
                      A                      A                      A
 Frequencies --   3236.5260              3238.0865              3265.9615
 Red. masses --      1.0990                 1.0973                 1.0943
 Frc consts  --      6.7826                 6.7790                 6.8770
 IR Inten    --     25.2870                19.0838                 3.5129

                    136                    137                    138
                      A                      A                      A
 Frequencies --   3271.1250              3275.6970              3277.4638
 Red. masses --      1.0936                 1.0935                 1.0927
 Frc consts  --      6.8946                 6.9133                 6.9154
 IR Inten    --      3.5087                 4.5936                 1.5468

                    139                    140                    141
                      A                      A                      A
 Frequencies --   3295.9442              3296.2539              3298.7864
 Red. masses --      1.0988                 1.0990                 1.0994
 Frc consts  --      7.0325                 7.0355                 7.0491
 IR Inten    --      6.9973                15.4818                 4.7808

                    142                    143                    144
                      A                      A                      A
 Frequencies --   3299.1969              3598.1363              3600.9660
 Red. masses --      1.0993                 1.0816                 1.0818
 Frc consts  --      7.0500                 8.2506                 8.2649
 IR Inten    --      6.8350               504.1738               241.5423

 - Thermochemistry -
 -------------------
 Temperature   298.150 Kelvin.  Pressure   1.00000 Atm.
 Atom     1 has atomic number  6 and mass  12.00000

 Molecular mass:   374.15480 amu.
 Principal axes and moments of inertia in atomic units:
                           1         2         3
     Eigenvalues --  7748.41712********************
           X            0.99980  -0.01996  -0.00126
           Y            0.01995   0.99978  -0.00700
           Z            0.00140   0.00698   0.99997
 This molecule is an asymmetric top.
 Rotational symmetry number  1.
 Warning -- assumption of classical behavior for rotation
           may cause significant error
 Rotational temperatures (Kelvin)      0.01118     0.00862     0.00647
 Rotational constants (GHZ):           0.23292     0.17964     0.13484
 Zero-point vibrational energy    1097042.5 (Joules/Mol)
                                  262.19945 (Kcal/Mol)
 Warning -- explicit consideration of  34 degrees of freedom as
           vibrations may cause significant error
 Vibrational temperatures:     25.05    41.76    46.34    48.33    57.72
          (Kelvin)             92.45    99.07   110.46   116.70   133.51
                              146.63   169.12   175.19   198.56   204.74
                              279.97   304.64   348.55   370.70   378.28
                              445.13   452.75   496.86   539.09   589.57
                              593.91   598.59   608.55   631.78   671.28
                              714.82   721.80   769.17   814.37   910.06
                              911.50   914.31   942.44   964.10  1017.42
                             1032.89  1038.13  1042.71  1047.20  1048.10
                             1072.66  1100.47  1107.74  1117.37  1128.68
                             1152.61  1264.04  1267.89  1275.94  1280.16
                             1320.15  1349.57  1383.62  1398.85  1460.36
                             1462.35  1465.66  1466.38  1470.92  1471.66
                             1478.12  1479.32  1488.68  1491.05  1492.37
                             1499.73  1526.88  1528.55  1540.01  1557.13
                             1577.38  1602.44  1604.59  1609.07  1638.71
                             1640.46  1643.13  1668.20  1710.41  1711.41
                             1718.10  1751.42  1753.60  1756.39  1777.80
                             1810.53  1861.25  1873.61  1915.10  1916.73
                             1923.49  1932.46  1962.81  1971.14  1972.03
                             2010.59  2030.30  2134.65  2140.48  2160.08
                             2170.41  2183.46  2212.94  2215.54  2227.82
                             2229.56  2280.69  2283.75  2379.51  2383.57
                             2406.24  2406.90  2417.25  2431.90  2468.49
                             2493.82  4384.65  4488.94  4567.53  4605.37
                             4615.64  4622.83  4623.86  4632.83  4635.24
                             4642.88  4649.49  4656.64  4658.88  4698.99
                             4706.42  4713.00  4715.54  4742.13  4742.57
                             4746.22  4746.81  5176.92  5180.99

 Zero-point correction=                           0.417841 (Hartree/Particle)
 Thermal correction to Energy=                    0.442227
 Thermal correction to Enthalpy=                  0.443171
 Thermal correction to Gibbs Free Energy=         0.360573
 Sum of electronic and zero-point Energies=          -1415.348442
 Sum of electronic and thermal Energies=             -1415.324057
 Sum of electronic and thermal Enthalpies=           -1415.323113
 Sum of electronic and thermal Free Energies=        -1415.405711

                     E (Thermal)             CV                S
                      KCal/Mol        Cal/Mol-Kelvin    Cal/Mol-Kelvin
 Total                  277.501             92.846            173.843
 Electronic               0.000              0.000              0.000
 Translational            0.889              2.981             43.651
 Rotational               0.889              2.981             35.298
 Vibrational            275.724             86.884             94.893
 Vibration     1          0.593              1.986              6.910
 Vibration     2          0.593              1.984              5.895
 Vibration     3          0.594              1.983              5.688
 Vibration     4          0.594              1.983              5.605
 Vibration     5          0.594              1.981              5.253
 Vibration     6          0.597              1.971              4.322
 Vibration     7          0.598              1.969              4.186
 Vibration     8          0.599              1.965              3.972
 Vibration     9          0.600              1.962              3.864
 Vibration    10          0.602              1.954              3.600
 Vibration    11          0.604              1.948              3.417
 Vibration    12          0.608              1.935              3.140
 Vibration    13          0.609              1.931              3.072
 Vibration    14          0.614              1.915              2.831
 Vibration    15          0.616              1.911              2.773
 Vibration    16          0.635              1.847              2.184
 Vibration    17          0.643              1.823              2.029
 Vibration    18          0.658              1.776              1.786
 Vibration    19          0.667              1.750              1.678
 Vibration    20          0.670              1.741              1.642
 Vibration    21          0.699              1.656              1.366
 Vibration    22          0.702              1.646              1.338
 Vibration    23          0.724              1.585              1.187
 Vibration    24          0.746              1.524              1.061
 Vibration    25          0.774              1.449              0.927
 Vibration    26          0.777              1.442              0.917
 Vibration    27          0.779              1.435              0.906
 Vibration    28          0.785              1.420              0.882
 Vibration    29          0.799              1.385              0.829
 Vibration    30          0.824              1.324              0.747
 Vibration    31          0.852              1.257              0.666
 Vibration    32          0.857              1.246              0.654
 Vibration    33          0.890              1.173              0.577
 Vibration    34          0.922              1.105              0.512

                           ! Non-Optimized Parameters !
 Normal termination of Gaussian 16 at Thu Mar 29 03:32:26 2018.
