                         Program Version 4.0.1.2 - RELEASE -
|  1> !CPCM DLPNO-CCSD(T) Extrapolate(2/3,cc)  RIJCOSX GRIDX5 TightSCF KDIIS
|  2> %cpcm
|  3> smd true
|  4> solvent "Ethanol"
|  5> end
|  6> # Number of processors
|  7> %pal nprocs 24 end
|  8> # Memory per core
|  9> %maxcore 4000
| 10> %scf maxiter 500
| 11>     end
| 12> % mdci
| 13>    # Loose cut-off
| 14>    #  TCutPairs 1e-3
| 15>    #  TCutPNO 1e-6
| 16>    #  TCutMKN 1e-3
| 17>    # Normal cut-off
| 18>      TCutPairs 1e-4
| 19>      TCutPNO 3.33e-7
| 20>      TCutMKN 1e-3
| 21>    # Tight cut-off
| 22>    #TCutPairs 1e-5
| 23>    #TCutPNO 1e-7
| 24>    #TCutMKN 1e-4
| 25>    # Faster/less disk-IO for large jobs
| 26>    #LocalTrafo 3
| 27>    Density None
| 28> end
| 29> % output
| 30>    printlevel mini
| 31>    print[ P_SCFInfo ] 1
| 32>    print[ P_SCFIterInfo ] 1
| 33>    print[ P_OrbEn ] 0
| 34>    print[ P_Cartesian ] 0
| 35> end
| 36> % elprop
| 37>    Dipole False
| 38> end
| 39> * xyz 2 1
| 40>  C                 -0.46394900    4.16621900   -0.88429100
| 41>  C                 -0.20158900    2.81693300   -1.10785600
| 42>  C                 -0.45599600    1.86803500   -0.10986500
| 43>  C                 -0.99743700    2.29776600    1.10927400
| 44>  C                 -1.29219500    3.64207800    1.31756100
| 45>  H                 -0.24427800    4.89007300   -1.66388500
| 46>  H                  0.19935800    2.50680300   -2.06612800
| 47>  H                 -1.19134100    1.59069900    1.90955000
| 48>  H                 -1.72692000    3.95430900    2.26278900
| 49>  P                 -0.09966200    0.08408000   -0.40355600
| 50>  C                 -1.57569400   -1.05140500   -0.34331300
| 51>  C                 -1.56413300   -2.25847900   -1.04908700
| 52>  C                 -2.72734600   -0.69082400    0.36025600
| 53>  C                 -2.67359600   -3.07662600   -1.01532700
| 54>  H                 -0.70984800   -2.57127000   -1.63845000
| 55>  C                 -3.82175900   -1.53141900    0.34922400
| 56>  H                 -2.79716300    0.23379200    0.92046500
| 57>  H                 -2.73555900   -4.02814500   -1.52778700
| 58>  H                 -4.74987800   -1.31601400    0.86370700
| 59>  C                  0.43065600   -0.29709600    1.40568700
| 60>  C                 -0.01737800   -1.39005200    2.15336200
| 61>  C                  1.44328200    0.50234900    1.96199300
| 62>  C                  0.50842800   -1.66447400    3.41970200
| 63>  H                 -0.78031700   -2.06026100    1.76817100
| 64>  C                  1.96942100    0.23683400    3.22140600
| 65>  H                  1.83104300    1.35450500    1.40596800
| 66>  C                  1.49973900   -0.85176200    3.95941200
| 67>  H                  0.13744200   -2.51931900    3.97935000
| 68>  H                  2.74632000    0.87909200    3.62808000
| 69>  H                  1.90734000   -1.06300600    4.94438600
| 70>  C                 -1.01704200    4.58135200    0.32512200
| 71>  H                 -1.23346800    5.63260700    0.49419400
| 72>  O                 -0.33455800    0.20127300   -2.15002100
| 73>  C                  1.60765500   -0.46179800   -0.93662900
| 74>  C                  2.51823200    0.45608400   -1.46925900
| 75>  C                  2.01599900   -1.78659800   -0.74660000
| 76>  C                  3.79283200    0.03862100   -1.78994800
| 77>  H                  2.25909100    1.49489700   -1.63300500
| 78>  C                  3.29152100   -2.16375500   -1.10641200
| 79>  H                  1.35890000   -2.53083600   -0.30962100
| 80>  H                  4.55474700    0.69273300   -2.19490700
| 81>  H                  3.67333500   -3.17124900   -1.00035000
| 82>  N                  4.13651000   -1.24695800   -1.60767400
| 83>  C                 -1.56870000    0.55305900   -2.75630000
| 84>  H                 -1.35606900    1.19220600   -3.61984800
| 85>  H                 -2.09490000   -0.34554600   -3.10343100
| 86>  H                 -2.23233300    1.10518600   -2.07768200
| 87>  N                 -3.75881500   -2.69067300   -0.32429300
| 88>  H                  5.08077800   -1.53817300   -1.85463100
| 89>  H                 -4.57445700   -3.30131000   -0.31832000
| 90> *
| 91>                            ****END OF INPUT****
 Total Charge           Charge          ....    2
 Multiplicity           Mult            ....    1
 Number of Electrons    NEL             ....  196
E(0)                                       ...  -1408.628892986
E(0)                                       ...  -1408.628892986
E(CORR)(strong-pairs)                      ...     -3.752233746
E(CORR)(weak-pairs)                        ...     -0.032401287
E(CORR)(corrected)                         ...     -3.784635033
E(TOT)                                     ...  -1412.413528019
 Multiplicity           Mult            ....    1
 Number of Electrons    NEL             ....  196
 Basis Dimension        Dim             .... 1136
E(0)                                       ...  -1408.918230071
E(CORR)(strong-pairs)                      ...     -4.469857117
E(CORR)(weak-pairs)                        ...     -0.041870452
E(CORR)(corrected)                         ...     -4.511727569
E(TOT)                                     ...  -1413.429957640
E(CCSD(T))                                 ...  -1413.658271146
FINAL SINGLE POINT ENERGY     -1414.219198387136
                             ****ORCA TERMINATED NORMALLY****
TOTAL RUN TIME: 0 days 6 hours 43 minutes 52 seconds 898 msec
