                         Program Version 4.0.1.2 - RELEASE -
|  1> !CPCM DLPNO-CCSD(T) Extrapolate(2/3,cc)  RIJCOSX GRIDX5 TightSCF KDIIS
|  2> %cpcm
|  3> smd true
|  4> solvent "Ethanol"
|  5> end
|  6> # Number of processors
|  7> %pal nprocs 24 end
|  8> # Memory per core
|  9> %maxcore 4000
| 10> %scf maxiter 500
| 11>     end
| 12> % mdci
| 13>    # Loose cut-off
| 14>    #  TCutPairs 1e-3
| 15>    #  TCutPNO 1e-6
| 16>    #  TCutMKN 1e-3
| 17>    # Normal cut-off
| 18>      TCutPairs 1e-4
| 19>      TCutPNO 3.33e-7
| 20>      TCutMKN 1e-3
| 21>    # Tight cut-off
| 22>    #TCutPairs 1e-5
| 23>    #TCutPNO 1e-7
| 24>    #TCutMKN 1e-4
| 25>    # Faster/less disk-IO for large jobs
| 26>    #LocalTrafo 3
| 27>    Density None
| 28> end
| 29> % output
| 30>    printlevel mini
| 31>    print[ P_SCFInfo ] 1
| 32>    print[ P_SCFIterInfo ] 1
| 33>    print[ P_OrbEn ] 0
| 34>    print[ P_Cartesian ] 0
| 35> end
| 36> % elprop
| 37>    Dipole False
| 38> end
| 39> * xyz 2 1
| 40>  C                 -1.50145200   -2.63917000    2.20488200
| 41>  C                 -0.85502900   -2.50921700    0.97842400
| 42>  C                 -0.04794500   -1.39422800    0.71440800
| 43>  C                  0.08079100   -0.40243400    1.69316600
| 44>  C                 -0.57123600   -0.53127300    2.91840000
| 45>  H                 -2.11712400   -3.51321100    2.39955100
| 46>  H                 -0.97960100   -3.28345700    0.22457600
| 47>  H                  0.68067100    0.48540800    1.50824700
| 48>  H                 -0.46209800    0.24819200    3.66777300
| 49>  P                  0.60818400   -1.17742400   -0.98826900
| 50>  C                  2.26292700   -0.38385900   -0.63772600
| 51>  C                  2.74149800    0.51726200   -1.59393700
| 52>  C                  3.05510200   -0.65529600    0.48399000
| 53>  C                  3.97030900    1.12324200   -1.41461600
| 54>  H                  2.16425000    0.76047400   -2.47998000
| 55>  C                  4.27867000   -0.03187700    0.62364500
| 56>  H                  2.73496400   -1.34420700    1.25731600
| 57>  H                  4.40339200    1.83401700   -2.10702500
| 58>  H                  4.94775500   -0.19227800    1.45955200
| 59>  C                 -1.40280600    2.02018700   -0.05613200
| 60>  C                 -0.22008600    2.35048400   -0.72938200
| 61>  C                 -1.61714100    2.51819300    1.23564000
| 62>  C                  0.74304000    3.14294500   -0.11069700
| 63>  H                 -0.03304200    1.96088500   -1.72599400
| 64>  C                 -0.66143000    3.32486900    1.84417300
| 65>  H                 -2.53550500    2.28108700    1.76594400
| 66>  H                  1.66635600    3.37425000   -0.63477700
| 67>  H                 -0.84021600    3.71057300    2.84383200
| 68>  C                 -1.36187400   -1.64905100    3.17818200
| 69>  H                 -1.86901100   -1.74862300    4.13403500
| 70>  O                  1.04164900   -2.71036200   -1.43231500
| 71>  C                 -2.37652600    1.09815300   -0.67813300
| 72>  C                 -3.04710100    0.14102600    0.09944500
| 73>  C                 -2.62551300    1.12065800   -2.05927900
| 74>  C                 -3.91157400   -0.74728200   -0.49860500
| 75>  H                 -2.87261600    0.05879700    1.16612100
| 76>  C                 -3.50114900    0.21491100   -2.61420200
| 77>  H                 -2.15007500    1.84824400   -2.70697500
| 78>  H                 -4.44642000   -1.51992100    0.03906400
| 79>  H                 -3.74122600    0.17930500   -3.66931000
| 80>  C                  1.93549000   -3.54007500   -0.67971300
| 81>  H                  1.80601000   -4.55573200   -1.05917900
| 82>  H                  2.97062500   -3.22127500   -0.83973300
| 83>  H                  1.70042700   -3.51873600    0.38926400
| 84>  N                  4.68987500    0.83182700   -0.31984500
| 85>  H                  5.59525100    1.28371900   -0.20118100
| 86>  C                  0.52542200    3.63075000    1.17692200
| 87>  H                  1.27686900    4.24997200    1.65910200
| 88>  N                 -4.11200400   -0.68819500   -1.82698000
| 89>  H                 -4.75500200   -1.35216900   -2.25301400
| 90> *
| 91>
| 92>                          ****END OF INPUT****
 Total Charge           Charge          ....    2
 Multiplicity           Mult            ....    1
 Number of Electrons    NEL             ....  196
E(0)                                       ...  -1408.711143211
E(0)                                       ...  -1408.711143211
E(CORR)(strong-pairs)                      ...     -3.734428009
E(CORR)(weak-pairs)                        ...     -0.030432654
E(CORR)(corrected)                         ...     -3.764860663
E(TOT)                                     ...  -1412.476003874
 Multiplicity           Mult            ....    1
 Number of Electrons    NEL             ....  196
 Basis Dimension        Dim             .... 1136
E(0)                                       ...  -1408.998653445
E(CORR)(strong-pairs)                      ...     -4.449786677
E(CORR)(weak-pairs)                        ...     -0.040726743
E(CORR)(corrected)                         ...     -4.490513420
E(TOT)                                     ...  -1413.489166865
E(CCSD(T))                                 ...  -1413.713239464
FINAL SINGLE POINT ENERGY     -1414.272459706763
                             ****ORCA TERMINATED NORMALLY****
TOTAL RUN TIME: 0 days 5 hours 10 minutes 19 seconds 156 msec
