                         Program Version 4.0.1.2 - RELEASE -
|  1> !CPCM DLPNO-CCSD(T) Extrapolate(2/3,cc)  RIJCOSX GRIDX5 TightSCF KDIIS
|  2> %cpcm
|  3> smd true
|  4> solvent "Ethanol"
|  5> end
|  6> # Number of processors
|  7> %pal nprocs 24 end
|  8> # Memory per core
|  9> %maxcore 4000
| 10> %scf maxiter 500
| 11>     end
| 12> % mdci
| 13>    # Loose cut-off
| 14>    #  TCutPairs 1e-3
| 15>    #  TCutPNO 1e-6
| 16>    #  TCutMKN 1e-3
| 17>    # Normal cut-off
| 18>      TCutPairs 1e-4
| 19>      TCutPNO 3.33e-7
| 20>      TCutMKN 1e-3
| 21>    # Tight cut-off
| 22>    #TCutPairs 1e-5
| 23>    #TCutPNO 1e-7
| 24>    #TCutMKN 1e-4
| 25>    # Faster/less disk-IO for large jobs
| 26>    #LocalTrafo 3
| 27>    Density None
| 28> end
| 29> % output
| 30>    printlevel mini
| 31>    print[ P_SCFInfo ] 1
| 32>    print[ P_SCFIterInfo ] 1
| 33>    print[ P_OrbEn ] 0
| 34>    print[ P_Cartesian ] 0
| 35> end
| 36> % elprop
| 37>    Dipole False
| 38> end
| 39> * xyz 2 1
| 40>  C                  2.96778100    2.98985400   -0.48001600
| 41>  C                  2.25072400    1.81157200   -0.67315100
| 42>  C                  0.94184400    1.69840000   -0.19203600
| 43>  C                  0.34987900    2.78686900    0.45291000
| 44>  C                  1.06411000    3.97145900    0.62552000
| 45>  H                  3.98723100    3.06216100   -0.84838700
| 46>  H                  2.71779900    0.98905100   -1.20725000
| 47>  H                 -0.66798900    2.73298600    0.82470900
| 48>  H                  0.58976400    4.81382500    1.12107600
| 49>  P                  0.04142300    0.13449200   -0.51621600
| 50>  C                 -1.83976500    0.14450200   -0.45578000
| 51>  C                 -2.57218700   -0.41698100   -1.50548000
| 52>  C                 -2.53827000    0.69608100    0.62343700
| 53>  C                 -3.95180200   -0.43179800   -1.44870600
| 54>  H                 -2.08626200   -0.83242000   -2.37840500
| 55>  C                 -3.91836800    0.69424400    0.62197600
| 56>  H                 -2.03615700    1.12834400    1.48048600
| 57>  H                 -4.57948700   -0.86464400   -2.21731100
| 58>  H                 -4.52008800    1.12177400    1.41382500
| 59>  C                  0.03149300   -0.44300100    1.38370600
| 60>  C                 -0.62764300   -1.64622500    1.69107500
| 61>  C                  0.68184500    0.21309100    2.43355300
| 62>  C                 -0.63578600   -2.13980400    2.97485400
| 63>  H                 -1.14106400   -2.21984000    0.92370600
| 64>  C                  0.65649500   -0.31168400    3.71237600
| 65>  H                  1.22802800    1.13653400    2.28105700
| 66>  H                 -1.12786000   -3.05805600    3.27044400
| 67>  H                  1.14213600    0.15107700    4.56254000
| 68>  C                  2.37618800    4.07298300    0.16843100
| 69>  H                  2.93345000    4.99468400    0.31066300
| 70>  O                 -0.01103900    0.44402300   -2.23187500
| 71>  C                  1.02194600   -1.37586300   -0.90241900
| 72>  C                  2.21368400   -1.60572600   -0.20479000
| 73>  C                  0.59224900   -2.30801200   -1.85123100
| 74>  C                  2.97253400   -2.74338800   -0.46589200
| 75>  H                  2.56763000   -0.89736800    0.53938700
| 76>  C                  1.33665500   -3.46340900   -2.08338800
| 77>  H                 -0.31959100   -2.14652600   -2.41452800
| 78>  H                  3.90628500   -2.89843600    0.06728900
| 79>  H                  0.98367800   -4.18865200   -2.81122600
| 80>  C                 -0.51353000    1.66393200   -2.75074800
| 81>  H                  0.28754400    2.40950400   -2.83120600
| 82>  H                 -0.91532900    1.46256300   -3.74912900
| 83>  H                 -1.31940700    2.09038400   -2.13682600
| 84>  C                  2.52990500   -3.68118200   -1.39760800
| 85>  H                  3.11404100   -4.57681700   -1.59023000
| 86>  N                  0.00214600   -1.45862000    3.94588500
| 87>  N                 -4.57587100    0.12680200   -0.40074900
| 88>  H                 -0.00671300   -1.83350300    4.89241300
| 89>  H                 -5.59448400    0.12105700   -0.38038300
| 90> *
| 91>
| 92>                          ****END OF INPUT****
 Total Charge           Charge          ....    2
 Multiplicity           Mult            ....    1
 Number of Electrons    NEL             ....  196
E(0)                                       ...  -1408.633603150
E(0)                                       ...  -1408.633603150
E(CORR)(strong-pairs)                      ...     -3.752339143
E(CORR)(weak-pairs)                        ...     -0.032370787
E(CORR)(corrected)                         ...     -3.784709930
E(TOT)                                     ...  -1412.418313080
 Multiplicity           Mult            ....    1
 Number of Electrons    NEL             ....  196
 Basis Dimension        Dim             .... 1136
E(0)                                       ...  -1408.922835671
E(CORR)(strong-pairs)                      ...     -4.469549356
E(CORR)(weak-pairs)                        ...     -0.042220220
E(CORR)(corrected)                         ...     -4.511769575
E(TOT)                                     ...  -1413.434605246
E(CCSD(T))                                 ...  -1413.662260777
FINAL SINGLE POINT ENERGY     -1414.223208540074
                             ****ORCA TERMINATED NORMALLY****
TOTAL RUN TIME: 0 days 6 hours 22 minutes 18 seconds 994 msec
