 Gaussian 16, Revision A.03,
 Gaussian 16:  ES64L-G16RevA.03 25-Dec-2016

 ----------------------------------------------------------------------
 # wb97xd/6-31+g(d) opt=(maxcycles=200) scrf=(solvent=ethanol,smd) freq
 =noraman geom=connectivity
 ----------------------------------------------------------------------

 ----------------------
 Int3_Phax_wB97XD_631+d
 ----------------------
 Symbolic Z-matrix:
 Charge =  2 Multiplicity = 1

 SCF Done:  E(RwB97XD) =  -1415.69999202     A.U. after   16 cycles
 SCF Done:  E(RwB97XD) =  -1415.70002515     A.U. after   15 cycles
 SCF Done:  E(RwB97XD) =  -1415.69865667     A.U. after   15 cycles
 SCF Done:  E(RwB97XD) =  -1415.70018774     A.U. after   15 cycles
 SCF Done:  E(RwB97XD) =  -1415.70107384     A.U. after   15 cycles
 SCF Done:  E(RwB97XD) =  -1415.70145289     A.U. after   14 cycles
 SCF Done:  E(RwB97XD) =  -1415.70196742     A.U. after   14 cycles
 SCF Done:  E(RwB97XD) =  -1415.70320754     A.U. after   17 cycles
 SCF Done:  E(RwB97XD) =  -1415.69614690     A.U. after   17 cycles
 SCF Done:  E(RwB97XD) =  -1415.70447710     A.U. after   15 cycles
 SCF Done:  E(RwB97XD) =  -1415.70839719     A.U. after   14 cycles
 SCF Done:  E(RwB97XD) =  -1415.70843745     A.U. after   14 cycles
 SCF Done:  E(RwB97XD) =  -1415.70844101     A.U. after   14 cycles
 SCF Done:  E(RwB97XD) =  -1415.70841873     A.U. after   12 cycles
 SCF Done:  E(RwB97XD) =  -1415.70831798     A.U. after   15 cycles
 SCF Done:  E(RwB97XD) =  -1415.70839305     A.U. after   15 cycles
 SCF Done:  E(RwB97XD) =  -1415.70839849     A.U. after   12 cycles
 SCF Done:  E(RwB97XD) =  -1415.70839908     A.U. after   12 cycles
 SCF Done:  E(RwB97XD) =  -1415.70839908     A.U. after   10 cycles
 Optimization completed.
    -- Stationary point found.
 Normal termination of Gaussian 16 at Wed Mar 14 11:31:22 2018.

 ----------------------------------------------------------------------
 #N Geom=AllCheck Guess=TCheck SCRF=Check GenChk RwB97XD/6-31+G(d) Freq
 ----------------------------------------------------------------------

 Structure from the checkpoint file:  "Int3_SNAsdrdh.chk"
 ----------------------
 Int3_Phax_wB97XD_631+d
 ----------------------
 Charge =  2 Multiplicity = 1

                         Standard orientation:
 ---------------------------------------------------------------------
 Center     Atomic      Atomic             Coordinates (Angstroms)
 Number     Number       Type             X           Y           Z
 ---------------------------------------------------------------------
      1          6           0       -0.463949    4.166219   -0.884291
      2          6           0       -0.201589    2.816933   -1.107856
      3          6           0       -0.455996    1.868035   -0.109865
      4          6           0       -0.997437    2.297766    1.109274
      5          6           0       -1.292195    3.642078    1.317561
      6          1           0       -0.244278    4.890073   -1.663885
      7          1           0        0.199358    2.506803   -2.066128
      8          1           0       -1.191341    1.590699    1.909550
      9          1           0       -1.726920    3.954309    2.262789
     10         15           0       -0.099662    0.084080   -0.403556
     11          6           0       -1.575694   -1.051405   -0.343313
     12          6           0       -1.564133   -2.258479   -1.049087
     13          6           0       -2.727346   -0.690824    0.360256
     14          6           0       -2.673596   -3.076626   -1.015327
     15          1           0       -0.709848   -2.571270   -1.638450
     16          6           0       -3.821759   -1.531419    0.349224
     17          1           0       -2.797163    0.233792    0.920465
     18          1           0       -2.735559   -4.028145   -1.527787
     19          1           0       -4.749878   -1.316014    0.863707
     20          6           0        0.430656   -0.297096    1.405687
     21          6           0       -0.017378   -1.390052    2.153362
     22          6           0        1.443282    0.502349    1.961993
     23          6           0        0.508428   -1.664474    3.419702
     24          1           0       -0.780317   -2.060261    1.768171
     25          6           0        1.969421    0.236834    3.221406
     26          1           0        1.831043    1.354505    1.405968
     27          6           0        1.499739   -0.851762    3.959412
     28          1           0        0.137442   -2.519319    3.979350
     29          1           0        2.746320    0.879092    3.628080
     30          1           0        1.907340   -1.063006    4.944386
     31          6           0       -1.017042    4.581352    0.325122
     32          1           0       -1.233468    5.632607    0.494194
     33          8           0       -0.334558    0.201273   -2.150021
     34          6           0        1.607655   -0.461798   -0.936629
     35          6           0        2.518232    0.456084   -1.469259
     36          6           0        2.015999   -1.786598   -0.746600
     37          6           0        3.792832    0.038621   -1.789948
     38          1           0        2.259091    1.494897   -1.633005
     39          6           0        3.291521   -2.163755   -1.106412
     40          1           0        1.358900   -2.530836   -0.309621
     41          1           0        4.554747    0.692733   -2.194907
     42          1           0        3.673335   -3.171249   -1.000350
     43          7           0        4.136510   -1.246958   -1.607674
     44          6           0       -1.568700    0.553059   -2.756300
     45          1           0       -1.356069    1.192206   -3.619848
     46          1           0       -2.094900   -0.345546   -3.103431
     47          1           0       -2.232333    1.105186   -2.077682
     48          7           0       -3.758815   -2.690673   -0.324293
     49          1           0        5.080778   -1.538173   -1.854631
     50          1           0       -4.574457   -3.301310   -0.318320
 ---------------------------------------------------------------------

 SCF Done:  E(RwB97XD) =  -1415.70839908     A.U. after    2 cycles

 The electronic state is 1-A.
 Alpha  occ. eigenvalues --  -77.37435 -19.27195 -14.58308 -14.57915 -10.40100
 Alpha  occ. eigenvalues --  -10.40051 -10.39779 -10.39766 -10.37737 -10.37735
 Alpha  occ. eigenvalues --  -10.35665 -10.35645 -10.35361 -10.35247 -10.33718
 Alpha  occ. eigenvalues --  -10.33514 -10.32454 -10.32327 -10.32062 -10.31712
 Alpha  occ. eigenvalues --  -10.31678 -10.31450 -10.31334 -10.31290 -10.31246
 Alpha  occ. eigenvalues --  -10.31220 -10.31192  -6.78430  -4.93322  -4.93294
 Alpha  occ. eigenvalues --   -4.93204  -1.15028  -1.14665  -1.11752  -0.98343
 Alpha  occ. eigenvalues --   -0.97298  -0.96681  -0.96211  -0.92805  -0.92488
 Alpha  occ. eigenvalues --   -0.88761  -0.86303  -0.85608  -0.85306  -0.82814
 Alpha  occ. eigenvalues --   -0.79551  -0.79286  -0.78734  -0.77071  -0.74064
 Alpha  occ. eigenvalues --   -0.71634  -0.71322  -0.70995  -0.70570  -0.70141
 Alpha  occ. eigenvalues --   -0.67926  -0.64160  -0.63250  -0.62234  -0.62036
 Alpha  occ. eigenvalues --   -0.61374  -0.59564  -0.58784  -0.57685  -0.57279
 Alpha  occ. eigenvalues --   -0.56958  -0.56646  -0.56468  -0.56224  -0.55032
 Alpha  occ. eigenvalues --   -0.54777  -0.54238  -0.53745  -0.53104  -0.52688
 Alpha  occ. eigenvalues --   -0.51640  -0.51196  -0.50432  -0.49651  -0.49341
 Alpha  occ. eigenvalues --   -0.48199  -0.47515  -0.46788  -0.45876  -0.43964
 Alpha  occ. eigenvalues --   -0.43774  -0.43156  -0.42369  -0.41832  -0.40440
 Alpha  occ. eigenvalues --   -0.39095  -0.38787  -0.36331  -0.35747  -0.34825
 Alpha  occ. eigenvalues --   -0.34664  -0.33958  -0.33024
 Alpha virt. eigenvalues --   -0.03340  -0.02493   0.00831   0.01168   0.02152
 Alpha virt. eigenvalues --    0.03752   0.04140   0.04827   0.05401   0.05697
 Alpha virt. eigenvalues --    0.06240   0.06570   0.07377   0.07725   0.08230

 Mulliken charges:
               1
     1  C   -0.442962
     2  C    0.093182
     3  C    0.214803
     4  C   -0.412630
     5  C   -0.512972
     6  H    0.254908
     7  H    0.270505
     8  H    0.274268
     9  H    0.256090
    10  P    0.368677
    11  C   -1.388152
    12  C    0.880059
    13  C    1.636623
    14  C   -1.012807
    15  H    0.317878
    16  C   -1.119953
    17  H    0.315090
    18  H    0.319795
    19  H    0.320733
    20  C   -0.030595
    21  C    0.151204
    22  C    0.023457
    23  C   -0.501947
    24  H    0.254029
    25  C   -0.548144
    26  H    0.258134
    27  C   -0.155283
    28  H    0.247652
    29  H    0.248193
    30  H    0.248754
    31  C   -0.227828
    32  H    0.256472
    33  O   -0.487105
    34  C   -0.812544
    35  C    1.342669
    36  C    0.849596
    37  C   -1.117919
    38  H    0.310749
    39  C   -0.848822
    40  H    0.312948
    41  H    0.317564
    42  H    0.317338
    43  N   -0.300622
    44  C   -0.309930
    45  H    0.236576
    46  H    0.228833
    47  H    0.244679
    48  N   -0.286667
    49  H    0.571280
    50  H    0.574141
 Sum of Mulliken charges =   2.00000

 Dipole moment (field-independent basis, Debye):
    X=             -0.4997    Y=            -13.2962    Z=             -6.2788  Tot=             14.7127
 Quadrupole moment (field-independent basis, Debye-Ang):
   XX=            -21.2919   YY=            -87.1924   ZZ=           -137.4954
   XY=             20.0957   XZ=            -24.8428   YZ=              9.9461

  Exact polarizability: 397.880  16.764 451.360 -27.916  -8.788 389.604
 Approx polarizability: 308.539  14.627 347.865 -25.114  -6.301 303.004

                      1                      2                      3
                      A                      A                      A
 Frequencies --     38.4191                48.1228                51.8615
 Red. masses --      4.8918                 3.9061                 5.3505
 Frc consts  --      0.0043                 0.0053                 0.0085
 IR Inten    --      8.6924                 5.2005                 3.3977

                      4                      5                      6
                      A                      A                      A
 Frequencies --     58.6061                68.6361                75.5232
 Red. masses --      4.7199                 4.8705                 4.4158
 Frc consts  --      0.0096                 0.0135                 0.0148
 IR Inten    --      3.0603                 6.4148                 5.0223

                      7                      8                      9
                      A                      A                      A
 Frequencies --     82.3601                98.8553               109.3412
 Red. masses --      4.0836                 3.8082                 3.7652
 Frc consts  --      0.0163                 0.0219                 0.0265
 IR Inten    --      0.3582                 1.1854                 4.6340

                     10                     11                     12
                      A                      A                      A
 Frequencies --    129.4557               139.9487               183.4372
 Red. masses --      3.5485                 1.5836                 2.0137
 Frc consts  --      0.0350                 0.0183                 0.0399
 IR Inten    --      2.7146                 0.6182                 1.2503

                     13                     14                     15
                      A                      A                      A
 Frequencies --    204.6506               212.8152               219.2223
 Red. masses --      4.8741                 4.5198                 4.3801
 Frc consts  --      0.1203                 0.1206                 0.1240
 IR Inten    --      1.5059                 2.5892                 2.2730

                     16                     17                     18
                      A                      A                      A
 Frequencies --    231.4797               238.1758               246.7851
 Red. masses --      5.2400                 4.0831                 4.6298
 Frc consts  --      0.1654                 0.1365                 0.1661
 IR Inten    --      2.1537                 2.2979                12.3560

                     19                     20                     21
                      A                      A                      A
 Frequencies --    259.1065               281.4730               288.8571
 Red. masses --      4.9121                 4.5869                 5.1907
 Frc consts  --      0.1943                 0.2141                 0.2552
 IR Inten    --      5.1910                 8.3446                 4.5086

                     22                     23                     24
                      A                      A                      A
 Frequencies --    319.4691               319.6850               401.1916
 Red. masses --      6.4617                 5.0255                 4.6270
 Frc consts  --      0.3886                 0.3026                 0.4388
 IR Inten    --     29.3754                 7.1991                16.7619

                     25                     26                     27
                      A                      A                      A
 Frequencies --    403.1499               415.7077               417.1565
 Red. masses --      3.1117                 2.9089                 2.8647
 Frc consts  --      0.2980                 0.2962                 0.2937
 IR Inten    --      4.2536                 1.9829                 0.1112

                     28                     29                     30
                      A                      A                      A
 Frequencies --    439.5470               461.5058               490.9396
 Red. masses --      3.0663                 4.7358                 4.5710
 Frc consts  --      0.3490                 0.5943                 0.6491
 IR Inten    --      0.7309                17.6470                44.7990

                     31                     32                     33
                      A                      A                      A
 Frequencies --    519.9301               542.2664               545.3424
 Red. masses --      6.7274                 3.6081                 3.8731
 Frc consts  --      1.0715                 0.6251                 0.6787
 IR Inten    --    331.8705               113.8217               219.5404

                     34                     35                     36
                      A                      A                      A
 Frequencies --    557.0725               583.0042               634.0990
 Red. masses --      7.9334                 5.5664                 6.4020
 Frc consts  --      1.4505                 1.1147                 1.5166
 IR Inten    --    175.0264               227.6871                 1.8037

                     37                     38                     39
                      A                      A                      A
 Frequencies --    636.1414               663.5529               666.3950
 Red. masses --      6.3848                 6.5051                 6.4418
 Frc consts  --      1.5223                 1.6876                 1.6855
 IR Inten    --      0.3729                 1.7762                 3.3627

                     40                     41                     42
                      A                      A                      A
 Frequencies --    689.0110               694.1375               724.3451
 Red. masses --      6.6530                 6.6096                 1.6365
 Frc consts  --      1.8609                 1.8764                 0.5059
 IR Inten    --     81.1137                 1.9188                88.7651

                     43                     44                     45
                      A                      A                      A
 Frequencies --    728.0894               731.9280               740.6189
 Red. masses --      2.3232                 4.5753                 4.8340
 Frc consts  --      0.7256                 1.4441                 1.5622
 IR Inten    --     92.7383               106.2423               117.2204

                     46                     47                     48
                      A                      A                      A
 Frequencies --    749.1107               757.1021               770.4741
 Red. masses --      3.8534                 4.0100                 1.2588
 Frc consts  --      1.2740                 1.3543                 0.4403
 IR Inten    --      8.9635                38.6468               215.1040

                     49                     50                     51
                      A                      A                      A
 Frequencies --    772.6506               778.9123               782.5656
 Red. masses --      1.2085                 1.7317                 2.0844
 Frc consts  --      0.4251                 0.6190                 0.7521
 IR Inten    --     41.1600                 8.0164                46.7300

                     52                     53                     54
                      A                      A                      A
 Frequencies --    880.8778               890.3929               892.5580
 Red. masses --      1.2464                 1.2567                 1.2560
 Frc consts  --      0.5698                 0.5870                 0.5895
 IR Inten    --      0.0999                 0.1378                 0.8355

                     55                     56                     57
                      A                      A                      A
 Frequencies --    901.1035               920.4943               925.0106
 Red. masses --      1.2408                 1.3688                 1.3325
 Frc consts  --      0.5936                 0.6833                 0.6717
 IR Inten    --      1.4478                 5.2664                 0.5760

                     58                     59                     60
                      A                      A                      A
 Frequencies --    958.9330               995.8406              1016.6705
 Red. masses --      1.3579                 1.3212                 1.4085
 Frc consts  --      0.7357                 0.7720                 0.8578
 IR Inten    --      0.3345                 4.6966                 0.3587

                     61                     62                     63
                      A                      A                      A
 Frequencies --   1021.0281              1021.3700              1022.3540
 Red. masses --      2.1016                 3.0195                 2.6244
 Frc consts  --      1.2909                 1.8559                 1.6161
 IR Inten    --      2.5998                 2.4950                 1.2473

                     64                     65                     66
                      A                      A                      A
 Frequencies --   1023.1399              1026.0775              1028.8223
 Red. masses --      1.6212                 1.3058                 1.4302
 Frc consts  --      0.9999                 0.8100                 0.8919
 IR Inten    --      2.2325                 3.3934                 3.2880

                     67                     68                     69
                      A                      A                      A
 Frequencies --   1033.0569              1038.5590              1039.6448
 Red. masses --      1.3144                 2.9280                 1.8284
 Frc consts  --      0.8265                 1.8607                 1.1644
 IR Inten    --      0.0522                 1.6320                 1.8286

                     70                     71                     72
                      A                      A                      A
 Frequencies --   1044.3158              1049.9326              1060.8349
 Red. masses --      2.9319                 1.4262                 4.0486
 Frc consts  --      1.8840                 0.9263                 2.6844
 IR Inten    --      0.4422                 1.4281                 1.7098

                     73                     74                     75
                      A                      A                      A
 Frequencies --   1064.5718              1078.5472              1105.0152
 Red. masses --      3.1798                 8.4530                 3.1222
 Frc consts  --      2.1232                 5.7935                 2.2462
 IR Inten    --      0.1608               394.3270                23.6887

                     76                     77                     78
                      A                      A                      A
 Frequencies --   1106.0673              1119.2829              1126.4336
 Red. masses --      3.1137                 2.1681                 2.4503
 Frc consts  --      2.2443                 1.6004                 1.8318
 IR Inten    --      7.7951                58.1270                71.9823

                     79                     80                     81
                      A                      A                      A
 Frequencies --   1130.4138              1133.1387              1144.4466
 Red. masses --      1.6740                 1.7539                 2.1662
 Frc consts  --      1.2603                 1.3269                 1.6716
 IR Inten    --      9.0299                 5.6449                26.5409

                     82                     83                     84
                      A                      A                      A
 Frequencies --   1152.6533              1155.2859              1167.4861
 Red. masses --      2.4852                 1.8739                 1.7204
 Frc consts  --      1.9454                 1.4736                 1.3816
 IR Inten    --     23.9551                 6.3095                 8.0136

                     85                     86                     87
                      A                      A                      A
 Frequencies --   1187.8698              1190.5607              1193.5432
 Red. masses --      1.2657                 1.1086                 1.0972
 Frc consts  --      1.0523                 0.9258                 0.9209
 IR Inten    --      4.0330                 0.3044                 0.6693

                     88                     89                     90
                      A                      A                      A
 Frequencies --   1217.5084              1231.8165              1247.4060
 Red. masses --      1.3462                 1.1461                 1.1771
 Frc consts  --      1.1757                 1.0247                 1.0791
 IR Inten    --     22.3951                 8.2949                 2.8704

                     91                     92                     93
                      A                      A                      A
 Frequencies --   1251.6748              1264.0059              1294.7668
 Red. masses --      1.1608                 1.1919                 1.5462
 Frc consts  --      1.0715                 1.1220                 1.5272
 IR Inten    --      8.3524                 1.1101                13.0694

                     94                     95                     96
                      A                      A                      A
 Frequencies --   1297.2381              1325.8798              1340.7800
 Red. masses --      1.6060                 4.7929                 3.2871
 Frc consts  --      1.5923                 4.9643                 3.4816
 IR Inten    --     27.1189                14.5236                 0.3740

                     97                     98                     99
                      A                      A                      A
 Frequencies --   1348.8933              1355.1412              1378.9736
 Red. masses --      1.9963                 1.8219                 1.5302
 Frc consts  --      2.1401                 1.9713                 1.7144
 IR Inten    --      4.8984                11.0504                 3.2734

                    100                    101                    102
                      A                      A                      A
 Frequencies --   1398.4558              1407.4017              1410.0122
 Red. masses --      1.3368                 1.7268                 1.8229
 Frc consts  --      1.5403                 2.0153                 2.1353
 IR Inten    --      2.8484                36.6908                22.7983

                    103                    104                    105
                      A                      A                      A
 Frequencies --   1483.2311              1489.4457              1509.5349
 Red. masses --      2.1658                 2.1831                 1.1260
 Frc consts  --      2.8073                 2.8535                 1.5117
 IR Inten    --     47.5806                28.1459                 2.0564

                    106                    107                    108
                      A                      A                      A
 Frequencies --   1513.7793              1526.3097              1542.7193
 Red. masses --      1.0446                 1.0477                 2.0357
 Frc consts  --      1.4103                 1.4380                 2.8545
 IR Inten    --     12.2731                13.0238                21.2083

                    109                    110                    111
                      A                      A                      A
 Frequencies --   1551.1013              1551.2342              1553.4511
 Red. masses --      1.9946                 2.0051                 2.1133
 Frc consts  --      2.8274                 2.8428                 3.0048
 IR Inten    --     26.8096                17.6216                82.4093

                    112                    113                    114
                      A                      A                      A
 Frequencies --   1556.4254              1558.7619              1656.0008
 Red. masses --      2.1104                 2.2290                 5.0556
 Frc consts  --      3.0122                 3.1909                 8.1685
 IR Inten    --      9.5491                83.5388                 4.6503

                    115                    116                    117
                      A                      A                      A
 Frequencies --   1659.6115              1673.1062              1674.1999
 Red. masses --      5.4076                 5.6182                 5.3625
 Frc consts  --      8.7755                 9.2660                 8.8559
 IR Inten    --      3.7665                 7.8313                 3.5890

                    118                    119                    120
                      A                      A                      A
 Frequencies --   1676.6536              1680.9932              1709.5973
 Red. masses --      3.6189                 3.4431                 5.2818
 Frc consts  --      5.9939                 5.7323                 9.0953
 IR Inten    --     69.7434                78.5007               192.7968

                    121                    122                    123
                      A                      A                      A
 Frequencies --   1713.8637              3040.9870              3112.5981
 Red. masses --      5.3014                 1.0307                 1.1055
 Frc consts  --      9.1748                 5.6160                 6.3103
 IR Inten    --    127.7082                97.7725                62.7537

                    124                    125                    126
                      A                      A                      A
 Frequencies --   3132.6246              3198.1166              3211.3838
 Red. masses --      1.1047                 1.0881                 1.0877
 Frc consts  --      6.3874                 6.5572                 6.6088
 IR Inten    --     57.3411                 7.8334                 0.0595

                    127                    128                    129
                      A                      A                      A
 Frequencies --   3219.5285              3219.6520              3228.8210
 Red. masses --      1.0876                 1.0924                 1.0909
 Frc consts  --      6.6418                 6.6721                 6.7007
 IR Inten    --      0.7675                19.7659                10.9780

                    130                    131                    132
                      A                      A                      A
 Frequencies --   3230.4642              3237.0821              3237.6249
 Red. masses --      1.0939                 1.0968                 1.0950
 Frc consts  --      6.7259                 6.7716                 6.7625
 IR Inten    --     34.7671                25.7482                15.2539

                    133                    134                    135
                      A                      A                      A
 Frequencies --   3245.9844              3261.2082              3264.0789
 Red. masses --      1.0962                 1.0922                 1.0929
 Frc consts  --      6.8054                 6.8439                 6.8604
 IR Inten    --     10.0541                 2.4196                10.3120

                    136                    137                    138
                      A                      A                      A
 Frequencies --   3264.2191              3271.3224              3277.1408
 Red. masses --      1.0928                 1.0931                 1.0916
 Frc consts  --      6.8606                 6.8921                 6.9069
 IR Inten    --      3.8364                 8.0574                 6.2940

                    139                    140                    141
                      A                      A                      A
 Frequencies --   3291.3481              3293.5739              3294.9496
 Red. masses --      1.0993                 1.0979                 1.0998
 Frc consts  --      7.0163                 7.0171                 7.0349
 IR Inten    --      6.5152                12.0629                 2.1417

                    142                    143                    144
                      A                      A                      A
 Frequencies --   3296.4385              3588.2223              3590.2599
 Red. masses --      1.0987                 1.0819                 1.0818
 Frc consts  --      7.0345                 8.2069                 8.2156
 IR Inten    --      4.9717               380.4419               344.8235

 - Thermochemistry -
 -------------------
 Temperature   298.150 Kelvin.  Pressure   1.00000 Atm.
 Atom     1 has atomic number  6 and mass  12.00000

 Molecular mass:   374.15480 amu.
 Principal axes and moments of inertia in atomic units:
                           1         2         3
     Eigenvalues --  9246.702769805.50078**********
           X            0.99993   0.01012   0.00584
           Y           -0.01006   0.99989  -0.01129
           Z           -0.00595   0.01123   0.99992
 This molecule is an asymmetric top.
 Rotational symmetry number  1.
 Warning -- assumption of classical behavior for rotation
           may cause significant error
 Rotational temperatures (Kelvin)      0.00937     0.00883     0.00771
 Rotational constants (GHZ):           0.19518     0.18405     0.16068
 Zero-point vibrational energy    1101199.4 (Joules/Mol)
                                  263.19298 (Kcal/Mol)
 Warning -- explicit consideration of  35 degrees of freedom as
           vibrations may cause significant error
 Vibrational temperatures:     55.28    69.24    74.62    84.32    98.75
          (Kelvin)            108.66   118.50   142.23   157.32   186.26
                              201.35   263.93   294.45   306.19   315.41
                              333.05   342.68   355.07   372.80   404.98
                              415.60   459.64   459.96   577.23   580.04
                              598.11   600.20   632.41   664.00   706.35
                              748.06   780.20   784.63   801.50   838.81
                              912.33   915.27   954.70   958.79   991.33
                              998.71  1042.17  1047.56  1053.08  1065.59
                             1077.80  1089.30  1108.54  1111.67  1120.68
                             1125.94  1267.39  1281.08  1284.19  1296.49
                             1324.39  1330.88  1379.69  1432.79  1462.76
                             1469.03  1469.52  1470.94  1472.07  1476.30
                             1480.25  1486.34  1494.25  1495.82  1502.54
                             1510.62  1526.30  1531.68  1551.79  1589.87
                             1591.38  1610.40  1620.69  1626.41  1630.33
                             1646.60  1658.41  1662.20  1679.75  1709.08
                             1712.95  1717.24  1751.72  1772.31  1794.74
                             1800.88  1818.62  1862.88  1866.44  1907.65
                             1929.08  1940.76  1949.75  1984.04  2012.07
                             2024.94  2028.69  2134.04  2142.98  2171.88
                             2177.99  2196.02  2219.63  2231.69  2231.88
                             2235.07  2239.35  2242.71  2382.62  2387.81
                             2407.23  2408.80  2412.33  2418.57  2459.73
                             2465.87  4375.30  4478.33  4507.15  4601.38
                             4620.47  4632.18  4632.36  4645.55  4647.92
                             4657.44  4658.22  4670.25  4692.15  4696.28
                             4696.48  4706.70  4715.07  4735.52  4738.72
                             4740.70  4742.84  5162.65  5165.58

 Zero-point correction=                           0.419425 (Hartree/Particle)
 Thermal correction to Energy=                    0.442603
 Thermal correction to Enthalpy=                  0.443548
 Thermal correction to Gibbs Free Energy=         0.367116
 Sum of electronic and zero-point Energies=          -1415.288974
 Sum of electronic and thermal Energies=             -1415.265796
 Sum of electronic and thermal Enthalpies=           -1415.264852
 Sum of electronic and thermal Free Energies=        -1415.341283

                     E (Thermal)             CV                S
                      KCal/Mol        Cal/Mol-Kelvin    Cal/Mol-Kelvin
 Total                  277.738             92.012            160.863
 Electronic               0.000              0.000              0.000
 Translational            0.889              2.981             43.651
 Rotational               0.889              2.981             35.275
 Vibrational            275.960             86.050             81.937
 Vibration     1          0.594              1.982              5.339
 Vibration     2          0.595              1.978              4.893
 Vibration     3          0.596              1.977              4.745
 Vibration     4          0.596              1.974              4.504
 Vibration     5          0.598              1.969              4.192
 Vibration     6          0.599              1.965              4.004
 Vibration     7          0.600              1.961              3.834
 Vibration     8          0.604              1.950              3.477
 Vibration     9          0.606              1.942              3.281
 Vibration    10          0.612              1.924              2.954
 Vibration    11          0.615              1.913              2.805
 Vibration    12          0.631              1.862              2.293
 Vibration    13          0.640              1.833              2.091
 Vibration    14          0.644              1.821              2.019
 Vibration    15          0.647              1.812              1.966
 Vibration    16          0.653              1.793              1.867
 Vibration    17          0.656              1.782              1.816
 Vibration    18          0.661              1.768              1.753
 Vibration    19          0.668              1.747              1.668
 Vibration    20          0.681              1.708              1.525
 Vibration    21          0.685              1.694              1.481
 Vibration    22          0.705              1.636              1.313
 Vibration    23          0.706              1.636              1.312
 Vibration    24          0.767              1.468              0.958
 Vibration    25          0.769              1.463              0.951
 Vibration    26          0.779              1.436              0.907
 Vibration    27          0.780              1.433              0.902
 Vibration    28          0.800              1.384              0.828
 Vibration    29          0.819              1.335              0.762
 Vibration    30          0.847              1.270              0.681
 Vibration    31          0.875              1.206              0.610
 Vibration    32          0.897              1.157              0.560
 Vibration    33          0.901              1.150              0.554
 Vibration    34          0.913              1.124              0.530
 Vibration    35          0.940              1.068              0.480

                           ! Non-Optimized Parameters !
 Normal termination of Gaussian 16 at Wed Mar 14 12:49:53 2018.
