                         Program Version 4.0.1.2 - RELEASE -
|  1> !CPCM DLPNO-CCSD(T) Extrapolate(2/3,cc)  RIJCOSX GRIDX5 TightSCF KDIIS
|  2> %cpcm
|  3> smd true
|  4> solvent "Ethanol"
|  5> end
|  6> # Number of processors
|  7> %pal nprocs 24 end
|  8> # Memory per core
|  9> %maxcore 4000
| 10> %scf maxiter 500
| 11>     end
| 12> % mdci
| 13>    # Loose cut-off
| 14>    #  TCutPairs 1e-3
| 15>    #  TCutPNO 1e-6
| 16>    #  TCutMKN 1e-3
| 17>    # Normal cut-off
| 18>      TCutPairs 1e-4
| 19>      TCutPNO 3.33e-7
| 20>      TCutMKN 1e-3
| 21>    # Tight cut-off
| 22>    #TCutPairs 1e-5
| 23>    #TCutPNO 1e-7
| 24>    #TCutMKN 1e-4
| 25>    # Faster/less disk-IO for large jobs
| 26>    #LocalTrafo 3
| 27>    Density None
| 28> end
| 29> % output
| 30>    printlevel mini
| 31>    print[ P_SCFInfo ] 1
| 32>    print[ P_SCFIterInfo ] 1
| 33>    print[ P_OrbEn ] 0
| 34>    print[ P_Cartesian ] 0
| 35> end
| 36> % elprop
| 37>    Dipole False
| 38> end
| 39> * xyz 2 1
| 40>  C                  1.30551700   -1.21532700   -2.67493400
| 41>  C                  0.34338400   -1.12020400   -1.66847600
| 42>  C                  0.62214600   -1.56989300   -0.37434800
| 43>  C                  1.88953300   -2.10848400   -0.10469500
| 44>  C                  2.84371800   -2.21838000   -1.11174100
| 45>  H                  1.07286000   -0.86023200   -3.67548900
| 46>  H                 -0.62660200   -0.69304900   -1.90476300
| 47>  H                  2.13416400   -2.44654500    0.90043200
| 48>  H                  3.81782900   -2.64554300   -0.88857000
| 49>  P                 -0.53805500   -1.44305800    1.04320500
| 50>  C                  1.84040300    1.63412100    0.40603500
| 51>  C                  2.14560700    1.08823200    1.65845000
| 52>  C                  2.77008500    1.51057700   -0.63141500
| 53>  C                  3.35083900    0.44549600    1.84273900
| 54>  H                  1.45086900    1.13521000    2.48826100
| 55>  C                  3.96319000    0.85851100   -0.39854000
| 56>  H                  2.59022200    1.92748000   -1.61514100
| 57>  H                  3.65261000   -0.00821000    2.77805200
| 58>  H                  4.73139900    0.72679200   -1.14946100
| 59>  C                 -2.10878500   -0.92298400    0.25019600
| 60>  C                 -2.65596900    0.30841800    0.62270700
| 61>  C                 -2.79461400   -1.72393700   -0.67344500
| 62>  C                 -3.85263700    0.75272700    0.05870000
| 63>  H                 -2.14785100    0.92422300    1.36253100
| 64>  C                 -3.99408500   -1.28737100   -1.22820400
| 65>  H                 -2.38640500   -2.68949500   -0.96201700
| 66>  C                 -4.52115700   -0.04455800   -0.86745900
| 67>  H                 -4.26565900    1.71475800    0.35085200
| 68>  H                 -4.51898300   -1.91378100   -1.94458300
| 69>  H                 -5.45681800    0.29545200   -1.30344400
| 70>  C                  2.55378700   -1.76863000   -2.40118300
| 71>  H                  3.30113800   -1.84613500   -3.18637200
| 72>  O                 -0.77405900   -3.09399500    1.23228400
| 73>  C                  0.54527700    2.32510700    0.18039800
| 74>  C                 -0.05472400    3.07109100    1.20166700
| 75>  C                 -0.09616000    2.23969800   -1.06016900
| 76>  C                 -1.25975900    3.69936400    0.96507900
| 77>  H                  0.40906000    3.19055600    2.17374400
| 78>  C                 -1.30459200    2.87699300   -1.24656100
| 79>  H                  0.32217300    1.66874800   -1.87965100
| 80>  H                 -1.77978400    4.29697600    1.70286900
| 81>  H                 -1.86461500    2.84388900   -2.17215000
| 82>  N                 -1.84212600    3.58188500   -0.23866500
| 83>  C                 -1.52892200   -3.48200900    2.38083100
| 84>  H                 -1.49314700   -4.57265200    2.42796300
| 85>  H                 -1.09638000   -3.06366100    3.29863400
| 86>  H                 -2.57414400   -3.16061500    2.29118200
| 87>  N                  4.21555000    0.35545600    0.81972200
| 88>  H                  5.10057900   -0.12503700    0.97267300
| 89>  H                 -2.73569000    4.04597200   -0.39307900
| 90> *
| 91>
| 92>                          ****END OF INPUT****
 Total Charge           Charge          ....    2
 Multiplicity           Mult            ....    1
 Number of Electrons    NEL             ....  196
E(0)                                       ...  -1408.708859854
E(0)                                       ...  -1408.708859854
E(CORR)(strong-pairs)                      ...     -3.731919049
E(CORR)(weak-pairs)                        ...     -0.032447704
E(CORR)(corrected)                         ...     -3.764366753
E(TOT)                                     ...  -1412.473226607
 Multiplicity           Mult            ....    1
 Number of Electrons    NEL             ....  196
 Basis Dimension        Dim             .... 1136
E(0)                                       ...  -1408.995656121
E(CORR)(strong-pairs)                      ...     -4.448646126
E(CORR)(weak-pairs)                        ...     -0.042287721
E(CORR)(corrected)                         ...     -4.490933846
E(TOT)                                     ...  -1413.486589967
E(CCSD(T))                                 ...  -1413.710430505
FINAL SINGLE POINT ENERGY     -1414.270115302636
                             ****ORCA TERMINATED NORMALLY****
TOTAL RUN TIME: 0 days 5 hours 13 minutes 43 seconds 234 msec
