                         Program Version 4.0.1.2 - RELEASE -
|  1> !CPCM DLPNO-CCSD(T) Extrapolate(2/3,cc)  RIJCOSX GRIDX5 TightSCF KDIIS
|  2> %cpcm
|  3> smd true
|  4> solvent "Ethanol"
|  5> end
|  6> # Number of processors
|  7> %pal nprocs 24 end
|  8> # Memory per core
|  9> %maxcore 4000
| 10> %scf maxiter 500
| 11>     end
| 12> % mdci
| 13>    # Loose cut-off
| 14>    #  TCutPairs 1e-3
| 15>    #  TCutPNO 1e-6
| 16>    #  TCutMKN 1e-3
| 17>    # Normal cut-off
| 18>      TCutPairs 1e-4
| 19>      TCutPNO 3.33e-7
| 20>      TCutMKN 1e-3
| 21>    # Tight cut-off
| 22>    #TCutPairs 1e-5
| 23>    #TCutPNO 1e-7
| 24>    #TCutMKN 1e-4
| 25>    # Faster/less disk-IO for large jobs
| 26>    #LocalTrafo 3
| 27>    Density None
| 28> end
| 29> % output
| 30>    printlevel mini
| 31>    print[ P_SCFInfo ] 1
| 32>    print[ P_SCFIterInfo ] 1
| 33>    print[ P_OrbEn ] 0
| 34>    print[ P_Cartesian ] 0
| 35> end
| 36> % elprop
| 37>    Dipole False
| 38> end
| 39> * xyz 2 1
| 40>  C                  4.18984100    0.32823800    0.31186100
| 41>  C                  2.98095600   -0.21948600   -0.10100900
| 42>  C                  1.87731100    0.61931100   -0.32724000
| 43>  C                  2.00171800    2.00405800   -0.16213300
| 44>  C                  3.21739000    2.54108400    0.25168900
| 45>  H                  5.04231500   -0.32167200    0.48466300
| 46>  H                  2.90467900   -1.29085300   -0.25891100
| 47>  H                  1.16919300    2.66977100   -0.36247500
| 48>  H                  3.31302100    3.61540900    0.37708400
| 49>  P                  0.33184500   -0.15640300   -0.81127700
| 50>  C                 -0.92581200    1.02638000   -1.30748600
| 51>  C                 -1.54251800    0.87575200   -2.55551900
| 52>  C                 -1.36141100    2.02218600   -0.42061500
| 53>  C                 -2.57522100    1.73477500   -2.92132700
| 54>  H                 -1.22933700    0.09187700   -3.23819000
| 55>  C                 -2.39427800    2.87406800   -0.79654900
| 56>  H                 -0.90360200    2.14006700    0.55741600
| 57>  H                 -3.05032300    1.61909400   -3.89082800
| 58>  H                 -2.72691900    3.64802800   -0.11140600
| 59>  C                 -0.79418000   -0.51942600    1.70235900
| 60>  C                 -2.12814400   -0.33658400    2.07783800
| 61>  C                  0.20282500    0.07387500    2.49044000
| 62>  C                 -2.43330700    0.43262300    3.18145000
| 63>  H                 -2.94571700   -0.78649400    1.52978200
| 64>  C                 -0.14705300    0.83523600    3.58399000
| 65>  H                  1.25803400   -0.04411000    2.27304300
| 66>  H                 -3.44446700    0.61681100    3.52194900
| 67>  H                  0.57169800    1.32398700    4.22938300
| 68>  C                  4.30624900    1.70619000    0.49586000
| 69>  H                  5.25227200    2.13098300    0.81924300
| 70>  O                  0.62171100   -1.15625400   -2.01586200
| 71>  C                 -0.42244500   -1.35041000    0.47142500
| 72>  C                  0.57812800   -2.42623300    0.83002400
| 73>  C                 -1.60624000   -1.96468200   -0.24001600
| 74>  C                  0.48093000   -3.68229500    0.35908900
| 75>  H                  1.40639100   -2.17609300    1.48297600
| 76>  C                 -1.60041600   -3.23828100   -0.67400900
| 77>  H                 -2.46090500   -1.34206600   -0.47986800
| 78>  H                  1.21060800   -4.44258800    0.61404200
| 79>  H                 -2.43792500   -3.65635100   -1.22128900
| 80>  C                  1.46633900   -0.78375300   -3.13509700
| 81>  H                  2.50703900   -0.99125600   -2.87948800
| 82>  H                  1.14453300   -1.41398800   -3.96370200
| 83>  H                  1.33989700    0.27038000   -3.39361100
| 84>  N                 -1.44446400    0.99657000    3.89170500
| 85>  N                 -0.55388800   -4.09304700   -0.44278300
| 86>  C                 -2.99891000    2.73264600   -2.04560200
| 87>  H                 -3.80550300    3.40020700   -2.33477900
| 88>  H                 -0.62103000   -5.06117300   -0.72297100
| 89>  H                 -1.68739100    1.55980100    4.70500800
| 90> *
| 91>
| 92>                          ****END OF INPUT****
 Total Charge           Charge          ....    2
 Multiplicity           Mult            ....    1
 Number of Electrons    NEL             ....  196
E(0)                                       ...  -1408.674268153
E(0)                                       ...  -1408.674268153
E(CORR)(strong-pairs)                      ...     -3.740128825
E(CORR)(weak-pairs)                        ...     -0.031408729
E(CORR)(corrected)                         ...     -3.771537555
E(TOT)                                     ...  -1412.445805707
 Multiplicity           Mult            ....    1
 Number of Electrons    NEL             ....  196
 Basis Dimension        Dim             .... 1136
E(0)                                       ...  -1408.968242027
E(CORR)(strong-pairs)                      ...     -4.455604529
E(CORR)(weak-pairs)                        ...     -0.042407797
E(CORR)(corrected)                         ...     -4.498012326
E(TOT)                                     ...  -1413.466254353
E(CCSD(T))                                 ...  -1413.689426619
FINAL SINGLE POINT ENERGY     -1414.251140638092
                             ****ORCA TERMINATED NORMALLY****
TOTAL RUN TIME: 0 days 6 hours 29 minutes 55 seconds 549 msec
