                         Program Version 4.0.1.2 - RELEASE -
|  1> !CPCM DLPNO-CCSD(T) Extrapolate(2/3,cc)  RIJCOSX GRIDX5 TightSCF KDIIS
|  2> %cpcm
|  3> smd true
|  4> solvent "Ethanol"
|  5> end
|  6> # Number of processors
|  7> %pal nprocs 24 end
|  8> # Memory per core
|  9> %maxcore 4000
| 10> %scf maxiter 500
| 11>     end
| 12> % mdci
| 13>    # Loose cut-off
| 14>    #  TCutPairs 1e-3
| 15>    #  TCutPNO 1e-6
| 16>    #  TCutMKN 1e-3
| 17>    # Normal cut-off
| 18>      TCutPairs 1e-4
| 19>      TCutPNO 3.33e-7
| 20>      TCutMKN 1e-3
| 21>    # Tight cut-off
| 22>    #TCutPairs 1e-5
| 23>    #TCutPNO 1e-7
| 24>    #TCutMKN 1e-4
| 25>    # Faster/less disk-IO for large jobs
| 26>    #LocalTrafo 3
| 27>    Density None
| 28> end
| 29> % output
| 30>    printlevel mini
| 31>    print[ P_SCFInfo ] 1
| 32>    print[ P_SCFIterInfo ] 1
| 33>    print[ P_OrbEn ] 0
| 34>    print[ P_Cartesian ] 0
| 35> end
| 36> % elprop
| 37>    Dipole False
| 38> end
| 39> * xyz 2 1
| 40>  C                 -2.96926000    2.87828100   -0.34860300
| 41>  C                 -1.85146200    2.11704900   -0.67860800
| 42>  C                 -1.81931500    0.75281400   -0.35976100
| 43>  C                 -2.92310700    0.15586400    0.27137300
| 44>  C                 -4.03479900    0.92495400    0.59343300
| 45>  H                 -2.98813400    3.93526200   -0.59635600
| 46>  H                 -1.01903100    2.59227100   -1.18667200
| 47>  H                 -2.92647900   -0.90277400    0.50817900
| 48>  H                 -4.88561500    0.45793300    1.08015700
| 49>  P                 -0.37802100   -0.23753100   -0.78441900
| 50>  C                  0.35907700   -1.29623600    0.62806500
| 51>  C                  1.45231500   -2.08203400   -0.06042500
| 52>  C                 -0.68031500   -2.25192900    1.17732700
| 53>  C                  1.29732300   -3.37484800   -0.39832800
| 54>  H                  2.35379800   -1.57072200   -0.37850500
| 55>  C                 -0.73409700   -3.54140400    0.80018400
| 56>  H                 -1.40630200   -1.88767300    1.89450700
| 57>  H                  2.06222500   -3.91674500   -0.94324300
| 58>  H                 -1.49269700   -4.21557200    1.18203300
| 59>  C                  0.86070600   -0.34673800    1.71654900
| 60>  C                  2.22323300   -0.21369700    2.00041600
| 61>  C                 -0.04706400    0.41508800    2.46536500
| 62>  C                  2.63986400    0.66606600    2.97778600
| 63>  H                  2.97818200   -0.78758900    1.47945900
| 64>  C                  0.41189900    1.28320000    3.43126100
| 65>  H                 -1.11674200    0.34546100    2.31268400
| 66>  H                  3.67842500    0.81775100    3.24352000
| 67>  H                 -0.23587700    1.90193400    4.03903500
| 68>  C                 -4.05698300    2.28618300    0.28933900
| 69>  H                 -4.92755500    2.88373500    0.54432700
| 70>  O                 -0.72798600   -1.27984700   -1.93510500
| 71>  C                  0.94130300    0.76869700   -1.47266200
| 72>  C                  1.48835400    1.82105600   -0.72330700
| 73>  C                  1.46560600    0.45154300   -2.73042500
| 74>  C                  2.55150500    2.55315900   -1.23983100
| 75>  H                  1.08259500    2.08694800    0.24896100
| 76>  C                  2.53224000    1.19033800   -3.23646600
| 77>  H                  1.04786100   -0.36440100   -3.31073400
| 78>  H                  2.96886600    3.37254800   -0.66235600
| 79>  H                  2.93824700    0.94491400   -4.21324100
| 80>  C                 -2.03294500   -1.84587700   -2.19566200
| 81>  H                 -2.73782500   -1.05224800   -2.45220600
| 82>  H                 -1.88569900   -2.50780300   -3.04835200
| 83>  H                 -2.37971300   -2.41464900   -1.33142700
| 84>  C                  3.07463800    2.23730300   -2.49388200
| 85>  H                  3.90604900    2.81119300   -2.89319600
| 86>  N                  1.73236100    1.38767700    3.65321800
| 87>  N                  0.17870300   -4.09658400   -0.06381700
| 88>  H                  2.05752000    2.03129700    4.37278300
| 89>  H                  0.15234700   -5.08996500   -0.24687000
| 90> *
| 91>
| 92>                          ****END OF INPUT****
 Total Charge           Charge          ....    2
 Multiplicity           Mult            ....    1
 Number of Electrons    NEL             ....  196
E(0)                                       ...  -1408.670705122
E(0)                                       ...  -1408.670705122
E(CORR)(strong-pairs)                      ...     -3.739528311
E(CORR)(weak-pairs)                        ...     -0.032968421
E(CORR)(corrected)                         ...     -3.772496733
E(TOT)                                     ...  -1412.443201854
 Multiplicity           Mult            ....    1
 Number of Electrons    NEL             ....  196
 Basis Dimension        Dim             .... 1136
E(0)                                       ...  -1408.964631981
E(CORR)(strong-pairs)                      ...     -4.455731677
E(CORR)(weak-pairs)                        ...     -0.043184444
E(CORR)(corrected)                         ...     -4.498916121
E(TOT)                                     ...  -1413.463548102
E(CCSD(T))                                 ...  -1413.686740179
FINAL SINGLE POINT ENERGY     -1414.248485903568
                             ****ORCA TERMINATED NORMALLY****
TOTAL RUN TIME: 0 days 6 hours 27 minutes 0 seconds 100 msec
