 Gaussian 16, Revision A.03,
 Gaussian 16:  ES64L-G16RevA.03 25-Dec-2016

 ----------------------------------------------------------------------
 # wb97xd/6-31+g(d) opt=(maxcycles=200) scrf=(solvent=ethanol,smd) freq
 =noraman geom=connectivity
 ----------------------------------------------------------------------

 -------------------
 Title Card Required
 -------------------
 Symbolic Z-matrix:
 Charge =  2 Multiplicity = 1

 SCF Done:  E(RwB97XD) =  -1415.73189022     A.U. after   17 cycles
 SCF Done:  E(RwB97XD) =  -1415.73733431     A.U. after   17 cycles
 SCF Done:  E(RwB97XD) =  -1415.73865652     A.U. after   17 cycles
 SCF Done:  E(RwB97XD) =  -1415.73931983     A.U. after   15 cycles
 SCF Done:  E(RwB97XD) =  -1415.73961572     A.U. after   15 cycles
 SCF Done:  E(RwB97XD) =  -1415.73986974     A.U. after   15 cycles
 SCF Done:  E(RwB97XD) =  -1415.74004694     A.U. after   16 cycles
 SCF Done:  E(RwB97XD) =  -1415.74026183     A.U. after   15 cycles
 SCF Done:  E(RwB97XD) =  -1415.74054230     A.U. after   15 cycles
 SCF Done:  E(RwB97XD) =  -1415.74064449     A.U. after   16 cycles
 SCF Done:  E(RwB97XD) =  -1415.74088268     A.U. after   13 cycles
 SCF Done:  E(RwB97XD) =  -1415.74087937     A.U. after   13 cycles
 SCF Done:  E(RwB97XD) =  -1415.74087763     A.U. after   12 cycles
 SCF Done:  E(RwB97XD) =  -1415.74087673     A.U. after   11 cycles
 SCF Done:  E(RwB97XD) =  -1415.74087571     A.U. after   11 cycles
 SCF Done:  E(RwB97XD) =  -1415.74087516     A.U. after   11 cycles
 SCF Done:  E(RwB97XD) =  -1415.74087432     A.U. after   11 cycles
 SCF Done:  E(RwB97XD) =  -1415.74087376     A.U. after   10 cycles
 SCF Done:  E(RwB97XD) =  -1415.74087336     A.U. after   10 cycles
 Optimization completed.
    -- Stationary point found.
 Normal termination of Gaussian 16 at Mon Mar 26 23:38:11 2018.

 ----------------------------------------------------------------------
 #N Geom=AllCheck Guess=TCheck SCRF=Check GenChk RwB97XD/6-31+G(d) Freq
 ----------------------------------------------------------------------

 Structure from the checkpoint file:  "Int3_boiujc.chk"
 -------------------
 Title Card Required
 -------------------
 Charge =  2 Multiplicity = 1

                         Standard orientation:
 ---------------------------------------------------------------------
 Center     Atomic      Atomic             Coordinates (Angstroms)
 Number     Number       Type             X           Y           Z
 ---------------------------------------------------------------------
      1          6           0       -1.440672    3.038730   -1.773317
      2          6           0       -0.515853    2.110689   -1.306250
      3          6           0       -0.624763    1.626231    0.003703
      4          6           0       -1.653560    2.071159    0.842018
      5          6           0       -2.572814    3.000247    0.364137
      6          1           0       -1.355068    3.418527   -2.786927
      7          1           0        0.284524    1.771348   -1.958111
      8          1           0       -1.740962    1.693970    1.856100
      9          1           0       -3.370371    3.348817    1.013544
     10         15           0        0.456307    0.303805    0.553217
     11          6           0       -1.684537   -1.245205   -0.057766
     12          6           0       -2.312949   -1.456741    1.176106
     13          6           0       -2.480053   -0.909471   -1.158174
     14          6           0       -3.679526   -1.313584    1.283421
     15          1           0       -1.758537   -1.720515    2.068242
     16          6           0       -3.842942   -0.773491   -1.004586
     17          1           0       -2.056615   -0.744216   -2.140809
     18          1           0       -4.227279   -1.456628    2.206201
     19          1           0       -4.514159   -0.507405   -1.811126
     20          6           0        2.164702    0.660129    0.146446
     21          6           0        3.112432   -0.361198   -0.010921
     22          6           0        2.559035    2.004659    0.080219
     23          6           0        4.441199   -0.032553   -0.254537
     24          1           0        2.827825   -1.404441    0.061610
     25          6           0        3.891673    2.321001   -0.162353
     26          1           0        1.836093    2.803305    0.217696
     27          6           0        4.830000    1.304574   -0.333857
     28          1           0        5.173915   -0.823851   -0.380425
     29          1           0        4.194591    3.362177   -0.216767
     30          1           0        5.869468    1.554804   -0.526047
     31          6           0       -2.469574    3.479628   -0.941223
     32          1           0       -3.191023    4.202869   -1.310705
     33          8           0        0.241399    0.209348    2.132137
     34          6           0       -0.150923   -1.334316   -0.184799
     35          6           0        0.402010   -2.494359    0.621679
     36          6           0        0.327079   -1.426756   -1.619230
     37          6           0        1.072601   -3.510668    0.052105
     38          1           0        0.233581   -2.521288    1.691964
     39          6           0        1.011505   -2.486114   -2.083051
     40          1           0        0.121712   -0.610191   -2.302405
     41          1           0        1.431945   -4.350815    0.635914
     42          1           0        1.333552   -2.545001   -3.116710
     43          7           0        1.361729   -3.549993   -1.289102
     44          6           0        1.318725   -0.035341    3.070450
     45          1           0        0.830124   -0.160897    4.036086
     46          1           0        1.863146   -0.942322    2.800716
     47          1           0        1.988031    0.827204    3.091376
     48          7           0       -4.398347   -0.973656    0.201526
     49          1           0       -5.406843   -0.868895    0.298857
     50          1           0        1.896112   -4.316368   -1.671897
 ---------------------------------------------------------------------

 SCF Done:  E(RwB97XD) =  -1415.74087336     A.U. after    2 cycles

 The electronic state is 1-A.
 Alpha  occ. eigenvalues --  -77.38385 -19.34346 -14.58069 -14.50435 -10.39907
 Alpha  occ. eigenvalues --  -10.39898 -10.38432 -10.38160 -10.36469 -10.35878
 Alpha  occ. eigenvalues --  -10.35832 -10.35253 -10.35166 -10.35045 -10.34729
 Alpha  occ. eigenvalues --  -10.33784 -10.33705 -10.33608 -10.33514 -10.32932
 Alpha  occ. eigenvalues --  -10.32785 -10.32460 -10.32450 -10.32446 -10.32435
 Alpha  occ. eigenvalues --  -10.31607 -10.31476  -6.80323  -4.95304  -4.95002
 Alpha  occ. eigenvalues --   -4.94944  -1.19140  -1.14835  -1.08272  -0.99902
 Alpha  occ. eigenvalues --   -0.98684  -0.98391  -0.92930  -0.92628  -0.89970
 Alpha  occ. eigenvalues --   -0.88592  -0.87559  -0.87343  -0.87048  -0.83995
 Alpha  occ. eigenvalues --   -0.81544  -0.79308  -0.77365  -0.74390  -0.73862
 Alpha  occ. eigenvalues --   -0.72608  -0.72483  -0.71831  -0.71184  -0.68420
 Alpha  occ. eigenvalues --   -0.66990  -0.64100  -0.63955  -0.63198  -0.62208
 Alpha  occ. eigenvalues --   -0.60771  -0.59494  -0.58884  -0.58285  -0.57793
 Alpha  occ. eigenvalues --   -0.56768  -0.56435  -0.56279  -0.56130  -0.55927
 Alpha  occ. eigenvalues --   -0.55589  -0.54853  -0.53564  -0.53287  -0.52988
 Alpha  occ. eigenvalues --   -0.52628  -0.51705  -0.50809  -0.49952  -0.49659
 Alpha  occ. eigenvalues --   -0.48609  -0.48076  -0.47841  -0.46906  -0.45525
 Alpha  occ. eigenvalues --   -0.44752  -0.44661  -0.44022  -0.43162  -0.42563
 Alpha  occ. eigenvalues --   -0.40196  -0.39005  -0.37496  -0.36296  -0.35884
 Alpha  occ. eigenvalues --   -0.35458  -0.35180  -0.28635
 Alpha virt. eigenvalues --   -0.03023  -0.00625   0.00934   0.01234   0.03148
 Alpha virt. eigenvalues --    0.03974   0.04826   0.05154   0.05584   0.06116
 Alpha virt. eigenvalues --    0.06469   0.07476   0.07690   0.08101   0.08163

 Mulliken charges:
               1
     1  C   -0.574781
     2  C    0.165264
     3  C    0.071951
     4  C   -0.194123
     5  C   -0.334381
     6  H    0.262495
     7  H    0.285934
     8  H    0.277981
     9  H    0.260797
    10  P   -0.227047
    11  C    0.048814
    12  C    0.726039
    13  C    0.782238
    14  C   -0.654386
    15  H    0.308545
    16  C   -0.694254
    17  H    0.292509
    18  H    0.318402
    19  H    0.319304
    20  C   -0.374235
    21  C    0.046061
    22  C    0.595902
    23  C   -0.249474
    24  H    0.281953
    25  C   -0.466598
    26  H    0.281515
    27  C   -0.160286
    28  H    0.263046
    29  H    0.264435
    30  H    0.264002
    31  C   -0.246144
    32  H    0.260660
    33  O   -0.270082
    34  C   -1.187082
    35  C    0.593283
    36  C    0.344907
    37  C   -0.610322
    38  H    0.276302
    39  C   -0.945790
    40  H    0.287288
    41  H    0.274252
    42  H    0.275101
    43  N   -0.485179
    44  C   -0.323720
    45  H    0.266253
    46  H    0.272278
    47  H    0.271533
    48  N   -0.327449
    49  H    0.565701
    50  H    0.520587
 Sum of Mulliken charges =   2.00000

 Dipole moment (field-independent basis, Debye):
    X=             -9.8552    Y=             -5.6160    Z=              0.6873  Tot=             11.3639
 Quadrupole moment (field-independent basis, Debye-Ang):
   XX=            -40.3156   YY=           -111.6296   ZZ=           -123.6166
   XY=             -1.8074   XZ=             -5.2097   YZ=             -2.6113

  Exact polarizability: 461.333 -55.271 398.205 -30.334 -17.449 371.274
 Approx polarizability: 343.068 -40.857 306.231 -24.563 -13.139 301.838

                      1                      2                      3
                      A                      A                      A
 Frequencies --      5.9776                28.4190                29.5748
 Red. masses --      4.6633                 5.3628                 4.9199
 Frc consts  --      0.0001                 0.0026                 0.0025
 IR Inten    --      0.8038                 2.7622                 1.7641

                      4                      5                      6
                      A                      A                      A
 Frequencies --     51.0470                60.3759                66.1190
 Red. masses --      4.6092                 4.3032                 3.9648
 Frc consts  --      0.0071                 0.0092                 0.0102
 IR Inten    --      0.4957                 0.6500                11.0889

                      7                      8                      9
                      A                      A                      A
 Frequencies --     83.8876                86.4335                94.8967
 Red. masses --      3.8151                 4.1211                 4.2537
 Frc consts  --      0.0158                 0.0181                 0.0226
 IR Inten    --      4.9971                 0.8375                 1.5076

                     10                     11                     12
                      A                      A                      A
 Frequencies --    110.7295               130.4625               132.1659
 Red. masses --      4.2342                 1.1937                 3.4415
 Frc consts  --      0.0306                 0.0120                 0.0354
 IR Inten    --      2.0065                 0.5243                 1.0680

                     13                     14                     15
                      A                      A                      A
 Frequencies --    172.3157               181.4138               218.2248
 Red. masses --      3.7672                 4.2067                 4.5301
 Frc consts  --      0.0659                 0.0816                 0.1271
 IR Inten    --      3.2386                 0.5473                 3.8704

                     16                     17                     18
                      A                      A                      A
 Frequencies --    225.1197               233.9180               247.0167
 Red. masses --      4.1556                 5.1036                 5.4070
 Frc consts  --      0.1241                 0.1645                 0.1944
 IR Inten    --      7.8285                 5.1623                 6.3809

                     19                     20                     21
                      A                      A                      A
 Frequencies --    248.1843               268.2346               300.3739
 Red. masses --      4.9604                 5.3991                 3.8547
 Frc consts  --      0.1800                 0.2289                 0.2049
 IR Inten    --     12.9186                 0.3485                15.0151

                     22                     23                     24
                      A                      A                      A
 Frequencies --    316.3540               363.0620               365.1418
 Red. masses --      4.9688                 2.1226                 3.1784
 Frc consts  --      0.2930                 0.1649                 0.2497
 IR Inten    --      7.4427               109.0764                59.9556

                     25                     26                     27
                      A                      A                      A
 Frequencies --    403.6641               412.2176               413.5211
 Red. masses --      3.5817                 3.0001                 3.0071
 Frc consts  --      0.3439                 0.3004                 0.3030
 IR Inten    --     19.2896                 2.2920                 7.4150

                     28                     29                     30
                      A                      A                      A
 Frequencies --    417.0191               453.4499               484.6217
 Red. masses --      2.9347                 4.7444                 4.3190
 Frc consts  --      0.3007                 0.5748                 0.5976
 IR Inten    --      0.9884                35.6361                36.5775

                     31                     32                     33
                      A                      A                      A
 Frequencies --    494.9740               507.3142               535.9887
 Red. masses --      4.1085                 3.5205                 4.6080
 Frc consts  --      0.5931                 0.5338                 0.7800
 IR Inten    --      8.3795                42.9716               134.1588

                     34                     35                     36
                      A                      A                      A
 Frequencies --    540.9390               568.8581               613.6932
 Red. masses --      3.1960                 4.0550                 5.9705
 Frc consts  --      0.5510                 0.7731                 1.3248
 IR Inten    --     14.3564               239.6968                 1.3521

                     37                     38                     39
                      A                      A                      A
 Frequencies --    631.9737               632.9210               642.9697
 Red. masses --      6.4446                 6.4234                 6.4478
 Frc consts  --      1.5165                 1.5161                 1.5705
 IR Inten    --      0.4426                 0.6681                 0.9413

                     40                     41                     42
                      A                      A                      A
 Frequencies --    664.9217               696.7639               711.0731
 Red. masses --      6.4813                 5.1401                 2.4780
 Frc consts  --      1.6883                 1.4703                 0.7382
 IR Inten    --      0.9422                15.3043                72.6077

                     43                     44                     45
                      A                      A                      A
 Frequencies --    713.9297               721.8958               745.2358
 Red. masses --      2.0499                 3.6961                 4.4665
 Frc consts  --      0.6156                 1.1349                 1.4615
 IR Inten    --     60.9039                74.0987                26.7185

                     46                     47                     48
                      A                      A                      A
 Frequencies --    760.8215               769.7795               773.9413
 Red. masses --      2.8771                 1.9795                 1.6315
 Frc consts  --      0.9812                 0.6911                 0.5758
 IR Inten    --      3.9726               150.2661                93.8198

                     49                     50                     51
                      A                      A                      A
 Frequencies --    775.7604               784.4599               810.6978
 Red. masses --      1.6776                 1.2673                 1.2676
 Frc consts  --      0.5948                 0.4595                 0.4908
 IR Inten    --      3.4624               363.9204                18.4760

                     52                     53                     54
                      A                      A                      A
 Frequencies --    813.5874               881.0765               881.5769
 Red. masses --      7.4382                 2.0958                 1.2457
 Frc consts  --      2.9009                 0.9586                 0.5704
 IR Inten    --    113.6916                10.9377                 0.3518

                     55                     56                     57
                      A                      A                      A
 Frequencies --    884.9923               900.7212               947.2068
 Red. masses --      1.2387                 1.4370                 2.7352
 Frc consts  --      0.5716                 0.6869                 1.4459
 IR Inten    --      0.3161                11.6065                 8.6416

                     58                     59                     60
                      A                      A                      A
 Frequencies --    950.7850               974.3448               981.0989
 Red. masses --      2.5352                 1.3434                 1.3275
 Frc consts  --      1.3503                 0.7514                 0.7529
 IR Inten    --      1.3810                 1.5355                 1.8806

                     61                     62                     63
                      A                      A                      A
 Frequencies --    988.2332              1000.0984              1021.3705
 Red. masses --      1.2483                 1.2629                 2.8671
 Frc consts  --      0.7183                 0.7442                 1.7622
 IR Inten    --      0.9267                 2.3316                 5.9539

                     64                     65                     66
                      A                      A                      A
 Frequencies --   1021.9757              1022.2106              1025.1272
 Red. masses --      1.7977                 3.4130                 1.3596
 Frc consts  --      1.1062                 2.1012                 0.8418
 IR Inten    --      6.3200                 5.5237                 0.7445

                     67                     68                     69
                      A                      A                      A
 Frequencies --   1028.4043              1036.6184              1037.2118
 Red. masses --      1.6996                 1.3765                 3.5496
 Frc consts  --      1.0591                 0.8715                 2.2499
 IR Inten    --      3.9371                28.4060                20.1266

                     70                     71                     72
                      A                      A                      A
 Frequencies --   1039.3260              1046.5293              1049.0718
 Red. masses --      5.4499                 1.3331                 1.6876
 Frc consts  --      3.4685                 0.8602                 1.0943
 IR Inten    --     12.4697                 0.7859                32.0926

                     73                     74                     75
                      A                      A                      A
 Frequencies --   1051.5209              1062.0430              1063.6745
 Red. masses --      2.1946                 2.7779                 2.5677
 Frc consts  --      1.4297                 1.8461                 1.7117
 IR Inten    --     67.6812                29.2658                 5.9630

                     76                     77                     78
                      A                      A                      A
 Frequencies --   1078.4161              1105.9417              1109.6009
 Red. masses --      7.5732                 2.9088                 2.2342
 Frc consts  --      5.1892                 2.0962                 1.6207
 IR Inten    --    523.0226                 8.8575                10.2394

                     79                     80                     81
                      A                      A                      A
 Frequencies --   1124.0889              1128.2444              1141.9218
 Red. masses --      1.7127                 1.6780                 2.8881
 Frc consts  --      1.2751                 1.2585                 2.2189
 IR Inten    --     43.0489                 4.7658                95.1167

                     82                     83                     84
                      A                      A                      A
 Frequencies --   1154.2732              1157.2960              1195.7049
 Red. masses --      2.9524                 1.5591                 1.1342
 Frc consts  --      2.3177                 1.2303                 0.9554
 IR Inten    --    172.1638                10.5925                 0.5551

                     85                     86                     87
                      A                      A                      A
 Frequencies --   1196.2027              1196.3198              1215.3100
 Red. masses --      1.0981                 1.1950                 1.5770
 Frc consts  --      0.9258                 1.0077                 1.3723
 IR Inten    --      1.9271                 1.1152                12.2794

                     88                     89                     90
                      A                      A                      A
 Frequencies --   1217.2105              1224.8934              1227.5542
 Red. masses --      2.6344                 1.1449                 1.1533
 Frc consts  --      2.2997                 1.0121                 1.0239
 IR Inten    --      8.6158                 9.7969                 3.6065

                     91                     92                     93
                      A                      A                      A
 Frequencies --   1249.3920              1254.8003              1282.2822
 Red. masses --      1.1767                 1.6336                 1.1441
 Frc consts  --      1.0822                 1.5155                 1.1084
 IR Inten    --     12.3001                14.6992                16.5512

                     94                     95                     96
                      A                      A                      A
 Frequencies --   1296.1622              1305.7361              1337.7846
 Red. masses --      1.2628                 1.5132                 3.5116
 Frc consts  --      1.2499                 1.5200                 3.7027
 IR Inten    --      4.0880                45.2727                 0.5121

                     97                     98                     99
                      A                      A                      A
 Frequencies --   1345.5340              1358.9205              1375.1226
 Red. masses --      4.1791                 1.8272                 1.5887
 Frc consts  --      4.4578                 1.9881                 1.7700
 IR Inten    --      0.7337                26.2577                13.0496

                    100                    101                    102
                      A                      A                      A
 Frequencies --   1379.9818              1410.1608              1428.4579
 Red. masses --      1.5308                 1.8214                 1.4556
 Frc consts  --      1.7176                 2.1339                 1.7499
 IR Inten    --      8.2322                25.7563                 4.4870

                    103                    104                    105
                      A                      A                      A
 Frequencies --   1487.8587              1488.8584              1493.6270
 Red. masses --      1.8419                 1.7604                 2.1837
 Frc consts  --      2.4023                 2.2991                 2.8703
 IR Inten    --     34.6873                18.5431                40.1989

                    106                    107                    108
                      A                      A                      A
 Frequencies --   1504.2388              1509.1646              1517.7970
 Red. masses --      1.0550                 1.0915                 1.0690
 Frc consts  --      1.4065                 1.4647                 1.4509
 IR Inten    --     26.4119                 6.8753                15.0814

                    109                    110                    111
                      A                      A                      A
 Frequencies --   1539.3371              1541.7547              1542.9619
 Red. masses --      2.1153                 2.3944                 2.0252
 Frc consts  --      2.9532                 3.3534                 2.8407
 IR Inten    --     51.5799               224.2627                 2.2214

                    112                    113                    114
                      A                      A                      A
 Frequencies --   1561.2754              1573.7107              1655.2361
 Red. masses --      2.1055                 2.3177                 5.3552
 Frc consts  --      3.0238                 3.3818                 8.6446
 IR Inten    --     54.3055                88.5945                 4.4742

                    115                    116                    117
                      A                      A                      A
 Frequencies --   1658.5227              1671.1450              1674.8919
 Red. masses --      5.5130                 5.5889                 5.4779
 Frc consts  --      8.9347                 9.1961                 9.0540
 IR Inten    --      2.6130                27.2117                13.3062

                    118                    119                    120
                      A                      A                      A
 Frequencies --   1683.0953              1693.1388              1719.1497
 Red. masses --      3.6960                 4.0091                 5.4158
 Frc consts  --      6.1688                 6.7714                 9.4307
 IR Inten    --    108.1307                10.4645               214.9141

                    121                    122                    123
                      A                      A                      A
 Frequencies --   1761.1911              3102.0533              3202.0828
 Red. masses --      5.9344                 1.0285                 1.1105
 Frc consts  --     10.8452                 5.8309                 6.7085
 IR Inten    --    367.4276                43.6494                11.8818

                    124                    125                    126
                      A                      A                      A
 Frequencies --   3223.2044              3224.5866              3226.0280
 Red. masses --      1.1088                 1.0876                 1.0880
 Frc consts  --      6.7869                 6.6633                 6.6715
 IR Inten    --      9.3655                 0.4066                 1.3150

                    127                    128                    129
                      A                      A                      A
 Frequencies --   3230.3819              3233.7857              3237.1041
 Red. masses --      1.0897                 1.0902                 1.0933
 Frc consts  --      6.6999                 6.7169                 6.7497
 IR Inten    --      2.8207                 1.9699                 7.0269

                    130                    131                    132
                      A                      A                      A
 Frequencies --   3240.0969              3244.6629              3248.1572
 Red. masses --      1.0940                 1.0955                 1.0979
 Frc consts  --      6.7669                 6.7954                 6.8250
 IR Inten    --      6.6807                 7.2902                11.2264

                    133                    134                    135
                      A                      A                      A
 Frequencies --   3248.9199              3249.0422              3254.9675
 Red. masses --      1.0912                 1.0961                 1.0869
 Frc consts  --      6.7864                 6.8172                 6.7849
 IR Inten    --      9.4775                 6.7458                 0.5018

                    136                    137                    138
                      A                      A                      A
 Frequencies --   3258.9870              3265.7036              3270.7535
 Red. masses --      1.0953                 1.0986                 1.0986
 Frc consts  --      6.8542                 6.9031                 6.9242
 IR Inten    --     14.9697                 4.7839                 4.3104

                    139                    140                    141
                      A                      A                      A
 Frequencies --   3279.6513              3281.2667              3296.5276
 Red. masses --      1.0922                 1.0915                 1.0983
 Frc consts  --      6.9215                 6.9240                 7.0324
 IR Inten    --      3.3708                 4.3551                11.6924

                    142                    143                    144
                      A                      A                      A
 Frequencies --   3297.8047              3606.4456              3692.8488
 Red. masses --      1.1001                 1.0817                 1.0806
 Frc consts  --      7.0489                 8.2896                 8.6826
 IR Inten    --      0.9560               359.6070               280.0755

 - Thermochemistry -
 -------------------
 Temperature   298.150 Kelvin.  Pressure   1.00000 Atm.
 Atom     1 has atomic number  6 and mass  12.00000

 Molecular mass:   374.15480 amu.
 Principal axes and moments of inertia in atomic units:
                           1         2         3
     Eigenvalues --  6907.267989955.61975**********
           X            0.99989  -0.01484   0.00098
           Y            0.01485   0.99984  -0.01010
           Z           -0.00083   0.01011   0.99995
 This molecule is an asymmetric top.
 Rotational symmetry number  1.
 Warning -- assumption of classical behavior for rotation
           may cause significant error
 Rotational temperatures (Kelvin)      0.01254     0.00870     0.00668
 Rotational constants (GHZ):           0.26128     0.18128     0.13913
 Zero-point vibrational energy    1098177.8 (Joules/Mol)
                                  262.47079 (Kcal/Mol)
 Warning -- explicit consideration of  36 degrees of freedom as
           vibrations may cause significant error
 Vibrational temperatures:      8.60    40.89    42.55    73.45    86.87
          (Kelvin)             95.13   120.70   124.36   136.54   159.32
                              187.71   190.16   247.92   261.01   313.98
                              323.90   336.56   355.40   357.08   385.93
                              432.17   455.16   522.37   525.36   580.78
                              593.09   594.96   600.00   652.41   697.26
                              712.16   729.91   771.17   778.29   818.46
                              882.97   909.27   910.63   925.09   956.67
                             1002.49  1023.08  1027.19  1038.65  1072.23
                             1094.65  1107.54  1113.53  1116.15  1128.66
                             1166.41  1170.57  1267.67  1268.39  1273.31
                             1295.94  1362.82  1367.97  1401.86  1411.58
                             1421.85  1438.92  1469.52  1470.40  1470.73
                             1474.93  1479.64  1491.46  1492.32  1495.36
                             1505.72  1509.38  1512.90  1528.04  1530.39
                             1551.60  1591.20  1596.47  1617.31  1623.29
                             1642.97  1660.74  1665.09  1720.35  1721.07
                             1721.24  1748.56  1751.29  1762.35  1766.18
                             1797.60  1805.38  1844.92  1864.89  1878.66
                             1924.77  1935.92  1955.18  1978.49  1985.49
                             2028.91  2055.23  2140.70  2142.14  2149.00
                             2164.26  2171.35  2183.77  2214.76  2218.24
                             2219.98  2246.33  2264.22  2381.52  2386.24
                             2404.40  2409.80  2421.60  2436.05  2473.47
                             2533.96  4463.16  4607.08  4637.47  4639.46
                             4641.53  4647.80  4652.70  4657.47  4661.78
                             4668.35  4673.37  4674.47  4674.65  4683.17
                             4688.96  4698.62  4705.88  4718.69  4721.01
                             4742.97  4744.81  5188.87  5313.19

 Zero-point correction=                           0.418274 (Hartree/Particle)
 Thermal correction to Energy=                    0.442186
 Thermal correction to Enthalpy=                  0.443130
 Thermal correction to Gibbs Free Energy=         0.362204
 Sum of electronic and zero-point Energies=          -1415.322600
 Sum of electronic and thermal Energies=             -1415.298688
 Sum of electronic and thermal Enthalpies=           -1415.297743
 Sum of electronic and thermal Free Energies=        -1415.378669

                     E (Thermal)             CV                S
                      KCal/Mol        Cal/Mol-Kelvin    Cal/Mol-Kelvin
 Total                  277.476             93.186            170.323
 Electronic               0.000              0.000              0.000
 Translational            0.889              2.981             43.651
 Rotational               0.889              2.981             35.144
 Vibrational            275.698             87.224             91.528
 Vibration     1          0.593              1.987              9.033
 Vibration     2          0.593              1.984              5.937
 Vibration     3          0.593              1.984              5.858
 Vibration     4          0.595              1.977              4.776
 Vibration     5          0.597              1.973              4.445
 Vibration     6          0.598              1.970              4.266
 Vibration     7          0.601              1.960              3.798
 Vibration     8          0.601              1.959              3.739
 Vibration     9          0.603              1.953              3.557
 Vibration    10          0.607              1.941              3.256
 Vibration    11          0.612              1.923              2.939
 Vibration    12          0.612              1.921              2.914
 Vibration    13          0.626              1.877              2.410
 Vibration    14          0.630              1.865              2.314
 Vibration    15          0.646              1.813              1.974
 Vibration    16          0.650              1.803              1.918
 Vibration    17          0.654              1.789              1.849
 Vibration    18          0.661              1.768              1.752
 Vibration    19          0.662              1.766              1.743
 Vibration    20          0.673              1.732              1.608
 Vibration    21          0.693              1.673              1.415
 Vibration    22          0.703              1.642              1.329
 Vibration    23          0.737              1.548              1.109
 Vibration    24          0.738              1.544              1.100
 Vibration    25          0.769              1.462              0.949
 Vibration    26          0.776              1.444              0.919
 Vibration    27          0.777              1.441              0.914
 Vibration    28          0.780              1.433              0.902
 Vibration    29          0.812              1.353              0.785
 Vibration    30          0.841              1.284              0.698
 Vibration    31          0.851              1.261              0.671
 Vibration    32          0.863              1.234              0.640
 Vibration    33          0.891              1.170              0.574
 Vibration    34          0.896              1.160              0.563
 Vibration    35          0.925              1.099              0.506
 Vibration    36          0.973              1.003              0.427

 Optimization completed on the basis of negligible forces.
    -- Stationary point found.
 Normal termination of Gaussian 16 at Tue Mar 27 00:59:50 2018.
