 Gaussian 16, Revision A.03,
 Gaussian 16:  ES64L-G16RevA.03 25-Dec-2016

 ----------------------------------------------------------------------
 # wb97xd/6-31+g(d) opt=(maxcycles=200) scrf=(solvent=ethanol,smd) freq
 =noraman geom=connectivity
 ----------------------------------------------------------------------

 ----------------
 Int3_Pyrax_631+d
 ----------------
 Symbolic Z-matrix:
 Charge =  2 Multiplicity = 1

 SCF Done:  E(RwB97XD) =  -1415.68091768     A.U. after   16 cycles
 SCF Done:  E(RwB97XD) =  -1415.69940927     A.U. after   16 cycles
 SCF Done:  E(RwB97XD) =  -1415.70178835     A.U. after   16 cycles
 SCF Done:  E(RwB97XD) =  -1415.70302087     A.U. after   15 cycles
 SCF Done:  E(RwB97XD) =  -1415.70357580     A.U. after   16 cycles
 SCF Done:  E(RwB97XD) =  -1415.70407049     A.U. after   17 cycles
 SCF Done:  E(RwB97XD) =  -1415.70426600     A.U. after   17 cycles
 SCF Done:  E(RwB97XD) =  -1415.70480497     A.U. after   16 cycles
 SCF Done:  E(RwB97XD) =  -1415.70543047     A.U. after   15 cycles
 SCF Done:  E(RwB97XD) =  -1415.70581240     A.U. after   17 cycles
 SCF Done:  E(RwB97XD) =  -1415.70666084     A.U. after   14 cycles
 SCF Done:  E(RwB97XD) =  -1415.70680565     A.U. after   15 cycles
 SCF Done:  E(RwB97XD) =  -1415.70672743     A.U. after   14 cycles
 SCF Done:  E(RwB97XD) =  -1415.70672984     A.U. after   14 cycles
 SCF Done:  E(RwB97XD) =  -1415.70674798     A.U. after   14 cycles
 SCF Done:  E(RwB97XD) =  -1415.70675472     A.U. after   13 cycles
 SCF Done:  E(RwB97XD) =  -1415.70675471     A.U. after   12 cycles
 SCF Done:  E(RwB97XD) =  -1415.70675495     A.U. after   11 cycles
 SCF Done:  E(RwB97XD) =  -1415.70675494     A.U. after   10 cycles
 Optimization completed.
    -- Stationary point found.
 Normal termination of Gaussian 16 at Thu Mar 15 15:09:26 2018.

 ----------------------------------------------------------------------
 #N Geom=AllCheck Guess=TCheck SCRF=Check GenChk RwB97XD/6-31+G(d) Freq
 ----------------------------------------------------------------------

 Structure from the checkpoint file:  "Int3_SNdxfksodk.chk"
 ----------------
 Int3_Pyrax_631+d
 ----------------
 Charge =  2 Multiplicity = 1

                         Standard orientation:
 ---------------------------------------------------------------------
 Center     Atomic      Atomic             Coordinates (Angstroms)
 Number     Number       Type             X           Y           Z
 ---------------------------------------------------------------------
      1          6           0        0.650653    4.153409   -0.691192
      2          6           0        0.660430    2.775267   -0.891580
      3          6           0       -0.152937    1.943809   -0.113564
      4          6           0       -0.996668    2.512133    0.844600
      5          6           0       -1.030137    3.893674    1.018282
      6          1           0        1.298975    4.786799   -1.290003
      7          1           0        1.300351    2.353414   -1.661016
      8          1           0       -1.631178    1.893032    1.469000
      9          1           0       -1.701080    4.323905    1.756375
     10         15           0       -0.097240    0.132850   -0.407815
     11          6           0       -1.739978   -0.785969   -0.340941
     12          6           0       -2.156178   -1.587758   -1.406582
     13          6           0       -2.570993   -0.680976    0.778834
     14          6           0       -3.363775   -2.254263   -1.333364
     15          1           0       -1.560671   -1.694475   -2.303787
     16          6           0       -3.785439   -1.335991    0.796576
     17          1           0       -2.292006   -0.108832    1.654826
     18          1           0       -3.742621   -2.898843   -2.116403
     19          1           0       -4.485654   -1.282623    1.620695
     20          6           0        0.346073   -0.401335    1.388459
     21          6           0        0.235751   -1.759806    1.724249
     22          6           0        0.937317    0.454275    2.324539
     23          6           0        0.671631   -2.241941    2.955457
     24          1           0       -0.190496   -2.468525    1.015310
     25          6           0        1.375459   -0.022186    3.562111
     26          1           0        1.071384    1.508597    2.102012
     27          1           0        0.568216   -3.298702    3.188177
     28          1           0        1.823722    0.667105    4.273087
     29          6           0       -0.199553    4.716058    0.259166
     30          1           0       -0.217244    5.792354    0.406270
     31          8           0       -0.290049    0.339660   -2.147228
     32          6           0        1.515671   -0.647364   -0.928442
     33          6           0        2.723908   -0.029078   -0.585475
     34          6           0        1.552062   -1.876196   -1.596409
     35          6           0        3.915998   -0.630312   -0.925810
     36          1           0        2.756487    0.911219   -0.046237
     37          6           0        2.769360   -2.449633   -1.896359
     38          1           0        0.651477   -2.402185   -1.888193
     39          1           0        4.887114   -0.206206   -0.703695
     40          1           0        2.876375   -3.399970   -2.403952
     41          6           0       -1.343288    1.103226   -2.711771
     42          1           0       -0.959726    2.065309   -3.072039
     43          1           0       -1.764060    0.548249   -3.557975
     44          1           0       -2.153089    1.305996   -1.997744
     45          7           0       -4.137868   -2.100489   -0.249056
     46          1           0       -5.034880   -2.583755   -0.217772
     47          6           0        1.240804   -1.370161    3.884283
     48          1           0        1.580716   -1.741143    4.847489
     49          7           0        3.904403   -1.814350   -1.561416
     50          1           0        4.794120   -2.250185   -1.796477
 ---------------------------------------------------------------------

 SCF Done:  E(RwB97XD) =  -1415.70675494     A.U. after    2 cycles

 The electronic state is 1-A.
 Alpha  occ. eigenvalues --  -77.37492 -19.27128 -14.58508 -14.57851 -10.40090
 Alpha  occ. eigenvalues --  -10.40056 -10.39763 -10.39747 -10.37823 -10.37783
 Alpha  occ. eigenvalues --  -10.35760 -10.35606 -10.35310 -10.35295 -10.33691
 Alpha  occ. eigenvalues --  -10.33461 -10.32470 -10.32397 -10.31928 -10.31738
 Alpha  occ. eigenvalues --  -10.31717 -10.31485 -10.31317 -10.31311 -10.31259
 Alpha  occ. eigenvalues --  -10.31251 -10.31188  -6.78489  -4.93388  -4.93353
 Alpha  occ. eigenvalues --   -4.93255  -1.15154  -1.14630  -1.11826  -0.98350
 Alpha  occ. eigenvalues --   -0.97332  -0.96644  -0.96201  -0.92818  -0.92476
 Alpha  occ. eigenvalues --   -0.88723  -0.86333  -0.85796  -0.85241  -0.82750
 Alpha  occ. eigenvalues --   -0.79431  -0.79260  -0.78813  -0.77057  -0.74077
 Alpha  occ. eigenvalues --   -0.71694  -0.71375  -0.71004  -0.70797  -0.69997
 Alpha  occ. eigenvalues --   -0.67948  -0.64087  -0.63229  -0.62384  -0.61655
 Alpha  occ. eigenvalues --   -0.61500  -0.59688  -0.58853  -0.57823  -0.57260
 Alpha  occ. eigenvalues --   -0.57034  -0.56711  -0.56459  -0.56144  -0.55163
 Alpha  occ. eigenvalues --   -0.54639  -0.54275  -0.53431  -0.53014  -0.52681
 Alpha  occ. eigenvalues --   -0.51696  -0.51257  -0.50441  -0.49622  -0.49323
 Alpha  occ. eigenvalues --   -0.48116  -0.47711  -0.46562  -0.45895  -0.44069
 Alpha  occ. eigenvalues --   -0.43859  -0.43054  -0.42373  -0.42156  -0.40818
 Alpha  occ. eigenvalues --   -0.39058  -0.38764  -0.36676  -0.35348  -0.34695
 Alpha  occ. eigenvalues --   -0.34382  -0.33782  -0.33297
 Alpha virt. eigenvalues --   -0.03803  -0.02733   0.00794   0.01496   0.02321
 Alpha virt. eigenvalues --    0.03901   0.04494   0.04792   0.05496   0.05854
 Alpha virt. eigenvalues --    0.06147   0.06470   0.07404   0.07711   0.08213

 Mulliken charges:
               1
     1  C   -0.384749
     2  C   -0.551021
     3  C    0.163244
     4  C    0.185666
     5  C   -0.385280
     6  H    0.255315
     7  H    0.275656
     8  H    0.253950
     9  H    0.254595
    10  P    0.269481
    11  C   -0.798412
    12  C    0.761652
    13  C    1.060932
    14  C   -0.788614
    15  H    0.314110
    16  C   -0.958513
    17  H    0.311706
    18  H    0.321164
    19  H    0.321413
    20  C    0.077507
    21  C   -0.174269
    22  C    0.384268
    23  C   -0.580931
    24  H    0.252170
    25  C   -0.723338
    26  H    0.255516
    27  H    0.248120
    28  H    0.248373
    29  C   -0.385768
    30  H    0.255984
    31  O   -0.524623
    32  C   -0.627217
    33  C    1.050664
    34  C    1.172547
    35  C   -1.024670
    36  H    0.316875
    37  C   -1.039369
    38  H    0.307772
    39  H    0.317759
    40  H    0.316926
    41  C   -0.350567
    42  H    0.234943
    43  H    0.231365
    44  H    0.242324
    45  N   -0.292026
    46  H    0.572162
    47  C   -0.159574
    48  H    0.248890
    49  N   -0.304770
    50  H    0.570664
 Sum of Mulliken charges =   2.00000

 Dipole moment (field-independent basis, Debye):
    X=             -2.6795    Y=            -13.1071    Z=             -5.8141  Tot=             14.5869
 Quadrupole moment (field-independent basis, Debye-Ang):
   XX=            -17.0303   YY=            -96.6509   ZZ=           -133.1063
   XY=             12.9276   XZ=            -18.9868   YZ=             22.0770

  Exact polarizability: 398.233  28.135 438.501 -13.938  33.383 402.101
 Approx polarizability: 309.470  22.670 337.289 -13.296  28.982 313.686

                      1                      2                      3
                      A                      A                      A
 Frequencies --     36.0443                37.1135                52.9266
 Red. masses --      4.6133                 4.4001                 4.9689
 Frc consts  --      0.0035                 0.0036                 0.0082
 IR Inten    --     10.2697                 0.8366                 3.6336

                      4                      5                      6
                      A                      A                      A
 Frequencies --     56.6753                63.9175                83.5558
 Red. masses --      5.1614                 4.5003                 3.9946
 Frc consts  --      0.0098                 0.0108                 0.0164
 IR Inten    --      8.8101                 1.8899                 1.6491

                      7                      8                      9
                      A                      A                      A
 Frequencies --     92.6472                99.2662               106.6590
 Red. masses --      3.9452                 3.8255                 3.9140
 Frc consts  --      0.0200                 0.0222                 0.0262
 IR Inten    --      2.9219                 3.7319                 2.7639

                     10                     11                     12
                      A                      A                      A
 Frequencies --    116.7638               149.3904               168.9793
 Red. masses --      3.8721                 1.1570                 3.4673
 Frc consts  --      0.0311                 0.0152                 0.0583
 IR Inten    --      1.8709                 0.2276                 0.5631

                     13                     14                     15
                      A                      A                      A
 Frequencies --    206.9138               214.7018               220.6297
 Red. masses --      4.1299                 5.2708                 4.8562
 Frc consts  --      0.1042                 0.1432                 0.1393
 IR Inten    --      4.4468                 0.5720                 1.0270

                     16                     17                     18
                      A                      A                      A
 Frequencies --    228.0472               234.5284               251.9177
 Red. masses --      4.2836                 4.6554                 5.0857
 Frc consts  --      0.1313                 0.1509                 0.1902
 IR Inten    --      0.9297                 1.8208                 9.3874

                     19                     20                     21
                      A                      A                      A
 Frequencies --    257.4915               278.6412               291.5819
 Red. masses --      5.3260                 4.6938                 4.8591
 Frc consts  --      0.2081                 0.2147                 0.2434
 IR Inten    --      6.1326                 2.6793                11.0511

                     22                     23                     24
                      A                      A                      A
 Frequencies --    315.9811               332.8216               400.5160
 Red. masses --      4.8097                 6.7177                 4.2703
 Frc consts  --      0.2829                 0.4384                 0.4036
 IR Inten    --      9.7895                23.2458                19.3790

                     25                     26                     27
                      A                      A                      A
 Frequencies --    404.8816               414.8162               422.7385
 Red. masses --      3.2636                 2.8671                 2.9212
 Frc consts  --      0.3152                 0.2907                 0.3076
 IR Inten    --     11.5377                 0.5376                 3.7631

                     28                     29                     30
                      A                      A                      A
 Frequencies --    426.8398               460.8816               498.0370
 Red. masses --      2.9608                 4.8390                 4.7335
 Frc consts  --      0.3178                 0.6056                 0.6918
 IR Inten    --      1.6609                 9.3671                50.1109

                     31                     32                     33
                      A                      A                      A
 Frequencies --    512.6784               539.8787               541.6991
 Red. masses --      5.1791                 5.0207                 3.6512
 Frc consts  --      0.8020                 0.8622                 0.6313
 IR Inten    --    102.5832               510.8527                18.0379

                     34                     35                     36
                      A                      A                      A
 Frequencies --    554.5147               587.1169               634.3664
 Red. masses --      7.2567                 5.8053                 6.4326
 Frc consts  --      1.3147                 1.1790                 1.5252
 IR Inten    --    192.9822               227.8380                 3.4708

                     37                     38                     39
                      A                      A                      A
 Frequencies --    636.1662               664.1171               666.6119
 Red. masses --      6.4178                 6.5159                 6.4698
 Frc consts  --      1.5303                 1.6932                 1.6939
 IR Inten    --      1.4488                 1.7528                 4.2949

                     40                     41                     42
                      A                      A                      A
 Frequencies --    687.6943               694.2349               720.3412
 Red. masses --      6.6772                 6.6190                 2.0077
 Frc consts  --      1.8605                 1.8796                 0.6138
 IR Inten    --     85.7105                 0.5808                79.0272

                     43                     44                     45
                      A                      A                      A
 Frequencies --    724.5371               731.2905               732.4574
 Red. masses --      1.9455                 3.3760                 4.5352
 Frc consts  --      0.6017                 1.0637                 1.4335
 IR Inten    --     58.8214               145.3234                62.8780

                     46                     47                     48
                      A                      A                      A
 Frequencies --    747.3368               754.2465               770.1667
 Red. masses --      4.0667                 4.1938                 1.2376
 Frc consts  --      1.3382                 1.4057                 0.4325
 IR Inten    --     13.2290                60.8430               186.1219

                     49                     50                     51
                      A                      A                      A
 Frequencies --    774.7038               779.4930               784.9254
 Red. masses --      1.4881                 1.4399                 2.1231
 Frc consts  --      0.5262                 0.5155                 0.7707
 IR Inten    --     57.4235                65.6531                34.1517

                     52                     53                     54
                      A                      A                      A
 Frequencies --    883.0218               884.8921               892.4792
 Red. masses --      1.2460                 1.2446                 1.2494
 Frc consts  --      0.5724                 0.5742                 0.5863
 IR Inten    --      0.0908                 0.2028                 1.3673

                     55                     56                     57
                      A                      A                      A
 Frequencies --    903.7458               917.4813               940.9212
 Red. masses --      1.2537                 1.3530                 1.3015
 Frc consts  --      0.6033                 0.6710                 0.6789
 IR Inten    --      0.7854                 2.1783                 0.7115

                     58                     59                     60
                      A                      A                      A
 Frequencies --    962.7614               969.8301              1018.2912
 Red. masses --      1.3562                 1.3321                 1.4558
 Frc consts  --      0.7406                 0.7382                 0.8894
 IR Inten    --      0.0927                 1.6551                 0.1186

                     61                     62                     63
                      A                      A                      A
 Frequencies --   1018.5949              1020.9249              1021.9147
 Red. masses --      1.9704                 3.1617                 1.5717
 Frc consts  --      1.2045                 1.9416                 0.9671
 IR Inten    --      0.5323                 3.7161                 0.5738

                     64                     65                     66
                      A                      A                      A
 Frequencies --   1025.1288              1027.1171              1029.2313
 Red. masses --      2.3103                 1.3388                 1.4502
 Frc consts  --      1.4305                 0.8321                 0.9051
 IR Inten    --      1.6027                 3.1940                 4.7157

                     67                     68                     69
                      A                      A                      A
 Frequencies --   1033.8927              1036.4245              1039.1138
 Red. masses --      1.9175                 1.3671                 2.7317
 Frc consts  --      1.2077                 0.8652                 1.7378
 IR Inten    --      5.8069                 0.4956                 3.0791

                     70                     71                     72
                      A                      A                      A
 Frequencies --   1040.5888              1043.3388              1059.5077
 Red. masses --      1.4460                 3.0315                 3.9533
 Frc consts  --      0.9225                 1.9442                 2.6147
 IR Inten    --      0.0377                 0.6618                 0.8316

                     73                     74                     75
                      A                      A                      A
 Frequencies --   1068.5715              1082.3489              1103.0179
 Red. masses --      3.0957                 8.1340                 3.6797
 Frc consts  --      2.0827                 5.6142                 2.6377
 IR Inten    --      0.1634               389.6859                 2.9778

                     76                     77                     78
                      A                      A                      A
 Frequencies --   1108.9771              1116.9299              1125.7979
 Red. masses --      3.4958                 2.3083                 1.6848
 Frc consts  --      2.5330                 1.6967                 1.2581
 IR Inten    --     27.1564                61.0640                 9.1186

                     79                     80                     81
                      A                      A                      A
 Frequencies --   1135.7344              1138.3843              1140.9019
 Red. masses --      1.9026                 1.9749                 2.3200
 Frc consts  --      1.4459                 1.5079                 1.7793
 IR Inten    --      7.4003                43.0350                40.9223

                     82                     83                     84
                      A                      A                      A
 Frequencies --   1155.0461              1156.8232              1171.8983
 Red. masses --      1.7861                 2.2737                 1.7312
 Frc consts  --      1.4039                 1.7928                 1.4008
 IR Inten    --     15.4759                 8.6400                 7.7965

                     85                     86                     87
                      A                      A                      A
 Frequencies --   1188.3073              1192.4498              1197.1497
 Red. masses --      1.2688                 1.1074                 1.1119
 Frc consts  --      1.0556                 0.9278                 0.9389
 IR Inten    --      4.0407                 0.2569                 0.1440

                     88                     89                     90
                      A                      A                      A
 Frequencies --   1215.4486              1235.4294              1246.5299
 Red. masses --      1.3641                 1.1469                 1.1614
 Frc consts  --      1.1873                 1.0313                 1.0633
 IR Inten    --     26.6573                 2.9441                 3.9375

                     91                     92                     93
                      A                      A                      A
 Frequencies --   1257.5350              1273.1416              1296.1526
 Red. masses --      1.1857                 1.2041                 1.6240
 Frc consts  --      1.1047                 1.1499                 1.6075
 IR Inten    --      4.2529                 4.6932                13.4819

                     94                     95                     96
                      A                      A                      A
 Frequencies --   1299.1082              1323.6880              1340.4198
 Red. masses --      1.6741                 3.7022                 5.2985
 Frc consts  --      1.6646                 3.8220                 5.6090
 IR Inten    --     38.1125                12.7192                 0.6618

                     97                     98                     99
                      A                      A                      A
 Frequencies --   1349.8410              1358.8069              1383.2805
 Red. masses --      1.7656                 2.0271                 1.4287
 Frc consts  --      1.8955                 2.2052                 1.6107
 IR Inten    --      6.1569                17.0425                 2.9510

                    100                    101                    102
                      A                      A                      A
 Frequencies --   1397.9638              1404.6398              1426.3372
 Red. masses --      1.6161                 1.4666                 1.5812
 Frc consts  --      1.8608                 1.7049                 1.8953
 IR Inten    --     12.7713                34.5569                20.5604

                    103                    104                    105
                      A                      A                      A
 Frequencies --   1484.2513              1491.3882              1505.2545
 Red. masses --      2.1241                 2.1703                 1.0749
 Frc consts  --      2.7570                 2.8442                 1.4350
 IR Inten    --     38.0680                34.1758                 8.1193

                    106                    107                    108
                      A                      A                      A
 Frequencies --   1512.8427              1529.7550              1544.0825
 Red. masses --      1.0998                 1.0475                 1.9812
 Frc consts  --      1.4830                 1.4443                 2.7830
 IR Inten    --      5.7815                19.2397                 8.0215

                    109                    110                    111
                      A                      A                      A
 Frequencies --   1550.1453              1554.1372              1556.5299
 Red. masses --      2.0459                 2.2636                 2.0518
 Frc consts  --      2.8965                 3.2213                 2.9289
 IR Inten    --     38.3398                61.5884                64.0973

                    112                    113                    114
                      A                      A                      A
 Frequencies --   1560.4399              1564.2751              1653.9445
 Red. masses --      2.0253                 2.0008                 5.2072
 Frc consts  --      2.9056                 2.8846                 8.3927
 IR Inten    --     33.8942                27.3930                 4.7811

                    115                    116                    117
                      A                      A                      A
 Frequencies --   1662.4183              1671.9232              1676.5206
 Red. masses --      5.2428                 5.5077                 5.2725
 Frc consts  --      8.5367                 9.0710                 8.7314
 IR Inten    --      1.6704                 0.5257                 0.8087

                    118                    119                    120
                      A                      A                      A
 Frequencies --   1677.6447              1686.5292              1710.8370
 Red. masses --      3.4504                 3.4551                 5.1914
 Frc consts  --      5.7217                 5.7903                 8.9526
 IR Inten    --     71.9063                82.1190               237.8500

                    121                    122                    123
                      A                      A                      A
 Frequencies --   1714.3033              3041.8593              3114.5714
 Red. masses --      5.3620                 1.0304                 1.1041
 Frc consts  --      9.2844                 5.6172                 6.3104
 IR Inten    --     83.5488                95.9594                63.2117

                    124                    125                    126
                      A                      A                      A
 Frequencies --   3127.7110              3189.6994              3211.8790
 Red. masses --      1.1060                 1.0885                 1.0875
 Frc consts  --      6.3749                 6.5248                 6.6099
 IR Inten    --     64.4961                11.1586                 0.0573

                    127                    128                    129
                      A                      A                      A
 Frequencies --   3218.4014              3219.9839              3226.4421
 Red. masses --      1.0873                 1.0923                 1.0903
 Frc consts  --      6.6354                 6.6724                 6.6873
 IR Inten    --      0.1624                21.4135                 5.6987

                    130                    131                    132
                      A                      A                      A
 Frequencies --   3231.9860              3234.5528              3238.8651
 Red. masses --      1.0949                 1.0940                 1.0956
 Frc consts  --      6.7386                 6.7438                 6.7715
 IR Inten    --     30.6608                14.6521                20.7967

                    133                    134                    135
                      A                      A                      A
 Frequencies --   3241.5325              3261.2705              3263.4363
 Red. masses --      1.0982                 1.0936                 1.0928
 Frc consts  --      6.7989                 6.8527                 6.8570
 IR Inten    --     20.8525                 5.3736                 7.2110

                    136                    137                    138
                      A                      A                      A
 Frequencies --   3279.2558              3285.6708              3286.3009
 Red. masses --      1.0923                 1.0919                 1.0896
 Frc consts  --      6.9205                 6.9449                 6.9331
 IR Inten    --     10.9511                12.0123                 5.7481

                    139                    140                    141
                      A                      A                      A
 Frequencies --   3291.9779              3292.7680              3295.9646
 Red. masses --      1.0986                 1.0995                 1.0973
 Frc consts  --      7.0146                 7.0234                 7.0235
 IR Inten    --      5.3505                 5.7026                 4.9423

                    142                    143                    144
                      A                      A                      A
 Frequencies --   3297.4725              3591.1563              3600.6097
 Red. masses --      1.0991                 1.0818                 1.0817
 Frc consts  --      7.0415                 8.2200                 8.2625
 IR Inten    --      3.8233               373.8157               354.6000

 - Thermochemistry -
 -------------------
 Temperature   298.150 Kelvin.  Pressure   1.00000 Atm.
 Atom     1 has atomic number  6 and mass  12.00000

 Molecular mass:   374.15480 amu.
 Principal axes and moments of inertia in atomic units:
                           1         2         3
     Eigenvalues --  9317.299709685.82236**********
           X            0.99971   0.02261   0.00866
           Y           -0.02264   0.99974   0.00349
           Z           -0.00858  -0.00368   0.99996
 This molecule is an asymmetric top.
 Rotational symmetry number  1.
 Warning -- assumption of classical behavior for rotation
           may cause significant error
 Rotational temperatures (Kelvin)      0.00930     0.00894     0.00769
 Rotational constants (GHZ):           0.19370     0.18633     0.16021
 Zero-point vibrational energy    1101610.7 (Joules/Mol)
                                  263.29129 (Kcal/Mol)
 Warning -- explicit consideration of  35 degrees of freedom as
           vibrations may cause significant error
 Vibrational temperatures:     51.86    53.40    76.15    81.54    91.96
          (Kelvin)            120.22   133.30   142.82   153.46   168.00
                              214.94   243.12   297.70   308.91   317.44
                              328.11   337.43   362.45   370.47   400.90
                              419.52   454.63   478.86   576.25   582.53
                              596.83   608.23   614.13   663.11   716.56
                              737.63   776.76   779.38   797.82   844.73
                              912.71   915.30   955.52   959.11   989.44
                              998.85  1036.41  1042.45  1052.16  1053.84
                             1075.25  1085.19  1108.10  1114.63  1121.52
                             1129.33  1270.47  1273.16  1284.08  1300.29
                             1320.05  1353.78  1385.20  1395.37  1465.09
                             1465.53  1468.88  1470.31  1474.93  1477.79
                             1480.83  1487.54  1491.18  1495.05  1497.18
                             1501.13  1524.40  1537.44  1557.26  1587.00
                             1595.57  1607.01  1619.77  1634.07  1637.88
                             1641.50  1661.85  1664.41  1686.10  1709.71
                             1715.67  1722.43  1748.76  1777.51  1793.48
                             1809.31  1831.77  1864.87  1869.13  1904.49
                             1928.57  1942.12  1955.02  1990.23  2011.36
                             2020.96  2052.18  2135.51  2145.77  2165.73
                             2176.64  2200.98  2221.59  2230.31  2236.06
                             2239.50  2245.12  2250.64  2379.66  2391.85
                             2405.52  2412.14  2413.76  2426.54  2461.51
                             2466.50  4376.56  4481.17  4500.08  4589.27
                             4621.18  4630.56  4632.84  4642.13  4650.11
                             4653.80  4660.00  4663.84  4692.24  4695.36
                             4718.12  4727.35  4728.25  4736.42  4737.56
                             4742.16  4744.33  5166.87  5180.47

 Zero-point correction=                           0.419581 (Hartree/Particle)
 Thermal correction to Energy=                    0.442798
 Thermal correction to Enthalpy=                  0.443742
 Thermal correction to Gibbs Free Energy=         0.367013
 Sum of electronic and zero-point Energies=          -1415.287174
 Sum of electronic and thermal Energies=             -1415.263957
 Sum of electronic and thermal Enthalpies=           -1415.263013
 Sum of electronic and thermal Free Energies=        -1415.339741

                     E (Thermal)             CV                S
                      KCal/Mol        Cal/Mol-Kelvin    Cal/Mol-Kelvin
 Total                  277.860             92.043            161.490
 Electronic               0.000              0.000              0.000
 Translational            0.889              2.981             43.651
 Rotational               0.889              2.981             35.273
 Vibrational            276.083             86.082             82.565
 Vibration     1          0.594              1.982              5.465
 Vibration     2          0.594              1.982              5.407
 Vibration     3          0.596              1.976              4.705
 Vibration     4          0.596              1.975              4.570
 Vibration     5          0.597              1.972              4.332
 Vibration     6          0.600              1.960              3.806
 Vibration     7          0.602              1.954              3.603
 Vibration     8          0.604              1.950              3.469
 Vibration     9          0.606              1.944              3.329
 Vibration    10          0.608              1.935              3.153
 Vibration    11          0.618              1.903              2.680
 Vibration    12          0.625              1.881              2.447
 Vibration    13          0.641              1.830              2.071
 Vibration    14          0.645              1.819              2.003
 Vibration    15          0.647              1.810              1.954
 Vibration    16          0.651              1.798              1.894
 Vibration    17          0.654              1.788              1.844
 Vibration    18          0.664              1.760              1.717
 Vibration    19          0.667              1.750              1.679
 Vibration    20          0.679              1.713              1.542
 Vibration    21          0.687              1.689              1.465
 Vibration    22          0.703              1.643              1.331
 Vibration    23          0.715              1.610              1.246
 Vibration    24          0.766              1.469              0.961
 Vibration    25          0.770              1.460              0.945
 Vibration    26          0.778              1.438              0.910
 Vibration    27          0.785              1.421              0.883
 Vibration    28          0.789              1.412              0.869
 Vibration    29          0.819              1.337              0.764
 Vibration    30          0.854              1.254              0.663
 Vibration    31          0.868              1.222              0.627
 Vibration    32          0.895              1.162              0.566
 Vibration    33          0.897              1.158              0.562
 Vibration    34          0.910              1.130              0.535
 Vibration    35          0.944              1.059              0.472

                           ! Non-Optimized Parameters !
 Normal termination of Gaussian 16 at Thu Mar 15 16:33:31 2018.
