                         Program Version 4.0.1.2 - RELEASE -
|  1> !CPCM DLPNO-CCSD(T) Extrapolate(2/3,cc)  RIJCOSX GRIDX5 TightSCF KDIIS
|  2> %cpcm
|  3> smd true
|  4> solvent "Ethanol"
|  5> end
|  6> # Number of processors
|  7> %pal nprocs 24 end
|  8> # Memory per core
|  9> %maxcore 4000
| 10> %scf maxiter 500
| 11>     end
| 12> % mdci
| 13>    # Loose cut-off
| 14>    #  TCutPairs 1e-3
| 15>    #  TCutPNO 1e-6
| 16>    #  TCutMKN 1e-3
| 17>    # Normal cut-off
| 18>      TCutPairs 1e-4
| 19>      TCutPNO 3.33e-7
| 20>      TCutMKN 1e-3
| 21>    # Tight cut-off
| 22>    #TCutPairs 1e-5
| 23>    #TCutPNO 1e-7
| 24>    #TCutMKN 1e-4
| 25>    # Faster/less disk-IO for large jobs
| 26>    #LocalTrafo 3
| 27>    Density None
| 28> end
| 29> % output
| 30>    printlevel mini
| 31>    print[ P_SCFInfo ] 1
| 32>    print[ P_SCFIterInfo ] 1
| 33>    print[ P_OrbEn ] 0
| 34>    print[ P_Cartesian ] 0
| 35> end
| 36> % elprop
| 37>    Dipole False
| 38> end
| 39> * xyz 2 1
| 40>  C                  2.96777900    2.98985600   -0.48001600
| 41>  C                  2.25072300    1.81157400   -0.67315100
| 42>  C                  0.94184300    1.69840100   -0.19203600
| 43>  C                  0.34987700    2.78686900    0.45291000
| 44>  C                  1.06410700    3.97146000    0.62552000
| 45>  H                  3.98722800    3.06216400   -0.84838700
| 46>  H                  2.71779800    0.98905300   -1.20725000
| 47>  H                 -0.66799100    2.73298500    0.82470900
| 48>  H                  0.58976000    4.81382600    1.12107600
| 49>  P                  0.04142300    0.13449200   -0.51621600
| 50>  C                 -1.83976500    0.14450000   -0.45578000
| 51>  C                 -2.57218700   -0.41698300   -1.50548000
| 52>  C                 -2.53827100    0.69607900    0.62343700
| 53>  C                 -3.95180200   -0.43180100   -1.44870600
| 54>  H                 -2.08626100   -0.83242200   -2.37840500
| 55>  C                 -3.91836900    0.69424100    0.62197600
| 56>  H                 -2.03615800    1.12834200    1.48048600
| 57>  H                 -4.57948600   -0.86464800   -2.21731100
| 58>  H                 -4.52008900    1.12177000    1.41382500
| 59>  C                  0.03149300   -0.44300100    1.38370600
| 60>  C                 -0.62764200   -1.64622600    1.69107500
| 61>  C                  0.68184500    0.21309200    2.43355300
| 62>  C                 -0.63578400   -2.13980500    2.97485400
| 63>  H                 -1.14106200   -2.21984100    0.92370600
| 64>  C                  0.65649500   -0.31168300    3.71237600
| 65>  H                  1.22802700    1.13653500    2.28105700
| 66>  H                 -1.12785700   -3.05805700    3.27044400
| 67>  H                  1.14213600    0.15107800    4.56254000
| 68>  C                  2.37618500    4.07298500    0.16843100
| 69>  H                  2.93344600    4.99468600    0.31066300
| 70>  O                 -0.01103900    0.44402300   -2.23187500
| 71>  C                  1.02194700   -1.37586200   -0.90241900
| 72>  C                  2.21368500   -1.60572400   -0.20479000
| 73>  C                  0.59225100   -2.30801100   -1.85123100
| 74>  C                  2.97253600   -2.74338600   -0.46589200
| 75>  H                  2.56763100   -0.89736600    0.53938700
| 76>  C                  1.33665800   -3.46340800   -2.08338800
| 77>  H                 -0.31958900   -2.14652600   -2.41452800
| 78>  H                  3.90628700   -2.89843300    0.06728900
| 79>  H                  0.98368200   -4.18865100   -2.81122600
| 80>  C                 -0.51353100    1.66393200   -2.75074800
| 81>  H                  0.28754200    2.40950400   -2.83120600
| 82>  H                 -0.91533000    1.46256200   -3.74912900
| 83>  H                 -1.31940900    2.09038300   -2.13682600
| 84>  C                  2.52990800   -3.68118000   -1.39760800
| 85>  H                  3.11404500   -4.57681400   -1.59023000
| 86>  N                  0.00214700   -1.45862000    3.94588500
| 87>  N                 -4.57587100    0.12679800   -0.40074900
| 88>  H                 -0.00671100   -1.83350300    4.89241300
| 89>  H                 -5.59448400    0.12105200   -0.38038300
| 90> *
| 91>
| 92>                          ****END OF INPUT****
 Total Charge           Charge          ....    2
 Multiplicity           Mult            ....    1
 Number of Electrons    NEL             ....  196
E(0)                                       ...  -1408.633603160
E(0)                                       ...  -1408.633603160
E(CORR)(strong-pairs)                      ...     -3.752362810
E(CORR)(weak-pairs)                        ...     -0.032289665
E(CORR)(corrected)                         ...     -3.784652475
E(TOT)                                     ...  -1412.418255635
 Multiplicity           Mult            ....    1
 Number of Electrons    NEL             ....  196
 Basis Dimension        Dim             .... 1136
E(0)                                       ...  -1408.922835610
E(CORR)(strong-pairs)                      ...     -4.469535451
E(CORR)(weak-pairs)                        ...     -0.042229838
E(CORR)(corrected)                         ...     -4.511765289
E(TOT)                                     ...  -1413.434600898
E(CCSD(T))                                 ...  -1413.662221351
FINAL SINGLE POINT ENERGY     -1414.223226901320
                             ****ORCA TERMINATED NORMALLY****
TOTAL RUN TIME: 0 days 6 hours 31 minutes 30 seconds 889 msec
