 Gaussian 16, Revision A.03,
 Gaussian 16:  ES64L-G16RevA.03 25-Dec-2016

 ----------------------------------------------------------------------
 # wb97xd/6-31+g(d) opt=(maxcycles=200) scrf=(solvent=ethanol,smd) freq
 =noraman geom=connectivity
 ----------------------------------------------------------------------

 -------------------
 Title Card Required
 -------------------
 Symbolic Z-matrix:
 Charge =  2 Multiplicity = 1

 SCF Done:  E(RwB97XD) =  -1415.69950215     A.U. after   18 cycles
 SCF Done:  E(RwB97XD) =  -1415.72006579     A.U. after   16 cycles
 SCF Done:  E(RwB97XD) =  -1415.73338537     A.U. after   17 cycles
 SCF Done:  E(RwB97XD) =  -1415.73725821     A.U. after   16 cycles
 SCF Done:  E(RwB97XD) =  -1415.73797368     A.U. after   15 cycles
 SCF Done:  E(RwB97XD) =  -1415.73940520     A.U. after   15 cycles
 SCF Done:  E(RwB97XD) =  -1415.73993954     A.U. after   15 cycles
 SCF Done:  E(RwB97XD) =  -1415.74081506     A.U. after   17 cycles
 SCF Done:  E(RwB97XD) =  -1415.74162211     A.U. after   16 cycles
 SCF Done:  E(RwB97XD) =  -1415.74183890     A.U. after   15 cycles
 SCF Done:  E(RwB97XD) =  -1415.74232777     A.U. after   14 cycles
 SCF Done:  E(RwB97XD) =  -1415.74254615     A.U. after   14 cycles
 SCF Done:  E(RwB97XD) =  -1415.74252500     A.U. after   13 cycles
 SCF Done:  E(RwB97XD) =  -1415.74254197     A.U. after   13 cycles
 SCF Done:  E(RwB97XD) =  -1415.74252500     A.U. after   13 cycles
 SCF Done:  E(RwB97XD) =  -1415.74253882     A.U. after   12 cycles
 SCF Done:  E(RwB97XD) =  -1415.74249662     A.U. after   14 cycles
 SCF Done:  E(RwB97XD) =  -1415.74254126     A.U. after   14 cycles
 SCF Done:  E(RwB97XD) =  -1415.74254267     A.U. after   12 cycles
 Optimization completed.
    -- Stationary point found.
 Normal termination of Gaussian 16 at Mon Mar 26 23:25:13 2018.

 ----------------------------------------------------------------------
 #N Geom=AllCheck Guess=TCheck SCRF=Check GenChk RwB97XD/6-31+G(d) Freq
 ----------------------------------------------------------------------

 Structure from the checkpoint file:  "Int3cv_b.chk"
 -------------------
 Title Card Required
 -------------------
 Charge =  2 Multiplicity = 1

                         Standard orientation:
 ---------------------------------------------------------------------
 Center     Atomic      Atomic             Coordinates (Angstroms)
 Number     Number       Type             X           Y           Z
 ---------------------------------------------------------------------
      1          6           0        4.189841    0.328238    0.311861
      2          6           0        2.980956   -0.219486   -0.101009
      3          6           0        1.877311    0.619311   -0.327240
      4          6           0        2.001718    2.004058   -0.162133
      5          6           0        3.217390    2.541084    0.251689
      6          1           0        5.042315   -0.321672    0.484663
      7          1           0        2.904679   -1.290853   -0.258911
      8          1           0        1.169193    2.669771   -0.362475
      9          1           0        3.313021    3.615409    0.377084
     10         15           0        0.331845   -0.156403   -0.811277
     11          6           0       -0.925812    1.026380   -1.307486
     12          6           0       -1.542518    0.875752   -2.555519
     13          6           0       -1.361411    2.022186   -0.420615
     14          6           0       -2.575221    1.734775   -2.921327
     15          1           0       -1.229337    0.091877   -3.238190
     16          6           0       -2.394278    2.874068   -0.796549
     17          1           0       -0.903602    2.140067    0.557416
     18          1           0       -3.050323    1.619094   -3.890828
     19          1           0       -2.726919    3.648028   -0.111406
     20          6           0       -0.794180   -0.519426    1.702359
     21          6           0       -2.128144   -0.336584    2.077838
     22          6           0        0.202825    0.073875    2.490440
     23          6           0       -2.433307    0.432623    3.181450
     24          1           0       -2.945717   -0.786494    1.529782
     25          6           0       -0.147053    0.835236    3.583990
     26          1           0        1.258034   -0.044110    2.273043
     27          1           0       -3.444467    0.616811    3.521949
     28          1           0        0.571698    1.323987    4.229383
     29          6           0        4.306249    1.706190    0.495860
     30          1           0        5.252272    2.130983    0.819243
     31          8           0        0.621711   -1.156254   -2.015862
     32          6           0       -0.422445   -1.350410    0.471425
     33          6           0        0.578128   -2.426233    0.830024
     34          6           0       -1.606240   -1.964682   -0.240016
     35          6           0        0.480930   -3.682295    0.359089
     36          1           0        1.406391   -2.176093    1.482976
     37          6           0       -1.600416   -3.238281   -0.674009
     38          1           0       -2.460905   -1.342066   -0.479868
     39          1           0        1.210608   -4.442588    0.614042
     40          1           0       -2.437925   -3.656351   -1.221289
     41          6           0        1.466339   -0.783753   -3.135097
     42          1           0        2.507039   -0.991256   -2.879488
     43          1           0        1.144533   -1.413988   -3.963702
     44          1           0        1.339897    0.270380   -3.393611
     45          7           0       -1.444464    0.996570    3.891705
     46          7           0       -0.553888   -4.093047   -0.442783
     47          6           0       -2.998910    2.732646   -2.045602
     48          1           0       -3.805503    3.400207   -2.334779
     49          1           0       -0.621030   -5.061173   -0.722971
     50          1           0       -1.687391    1.559801    4.705008
 ---------------------------------------------------------------------

 SCF Done:  E(RwB97XD) =  -1415.74254267     A.U. after    2 cycles

 The electronic state is 1-A.
 Alpha  occ. eigenvalues --  -77.38015 -19.34338 -14.58242 -14.50584 -10.40054
 Alpha  occ. eigenvalues --  -10.40034 -10.38600 -10.38432 -10.36376 -10.35918
 Alpha  occ. eigenvalues --  -10.35890 -10.35477 -10.35321 -10.34972 -10.34831
 Alpha  occ. eigenvalues --  -10.33706 -10.33705 -10.33664 -10.33575 -10.32891
 Alpha  occ. eigenvalues --  -10.32753 -10.32520 -10.32495 -10.32479 -10.32403
 Alpha  occ. eigenvalues --  -10.31735 -10.31488  -6.79978  -4.94967  -4.94640
 Alpha  occ. eigenvalues --   -4.94604  -1.19200  -1.15007  -1.08423  -0.99926
 Alpha  occ. eigenvalues --   -0.98670  -0.98501  -0.93042  -0.92783  -0.89792
 Alpha  occ. eigenvalues --   -0.88696  -0.87527  -0.87350  -0.87043  -0.83846
 Alpha  occ. eigenvalues --   -0.81921  -0.79469  -0.77015  -0.74402  -0.74180
 Alpha  occ. eigenvalues --   -0.72782  -0.72483  -0.71780  -0.71336  -0.68512
 Alpha  occ. eigenvalues --   -0.67046  -0.64159  -0.63815  -0.63344  -0.62394
 Alpha  occ. eigenvalues --   -0.60717  -0.59531  -0.58832  -0.58663  -0.57743
 Alpha  occ. eigenvalues --   -0.56834  -0.56470  -0.56387  -0.56127  -0.55972
 Alpha  occ. eigenvalues --   -0.55548  -0.54844  -0.53629  -0.53410  -0.52620
 Alpha  occ. eigenvalues --   -0.52322  -0.51855  -0.51323  -0.50107  -0.49604
 Alpha  occ. eigenvalues --   -0.48303  -0.47951  -0.47657  -0.46921  -0.45612
 Alpha  occ. eigenvalues --   -0.45253  -0.44556  -0.44371  -0.43713  -0.41728
 Alpha  occ. eigenvalues --   -0.40783  -0.39193  -0.37064  -0.36540  -0.35676
 Alpha  occ. eigenvalues --   -0.35468  -0.35342  -0.28717
 Alpha virt. eigenvalues --   -0.03147  -0.00781   0.00787   0.01633   0.03348
 Alpha virt. eigenvalues --    0.03716   0.04652   0.04827   0.05669   0.06205
 Alpha virt. eigenvalues --    0.06499   0.07297   0.07670   0.07860   0.08157

 Mulliken charges:
               1
     1  C   -0.471065
     2  C    0.071974
     3  C    0.264326
     4  C   -0.087217
     5  C   -0.615647
     6  H    0.263821
     7  H    0.285951
     8  H    0.282915
     9  H    0.263492
    10  P    0.482707
    11  C   -0.028533
    12  C   -0.114418
    13  C   -0.167130
    14  C   -0.280963
    15  H    0.282227
    16  C   -0.480143
    17  H    0.290734
    18  H    0.262089
    19  H    0.261879
    20  C    0.189904
    21  C    1.095692
    22  C    0.813209
    23  C   -0.758581
    24  H    0.296646
    25  C   -0.852426
    26  H    0.324092
    27  H    0.319006
    28  H    0.320236
    29  C   -0.180808
    30  H    0.263126
    31  O   -0.468824
    32  C   -0.743707
    33  C    0.366846
    34  C   -0.228787
    35  C   -0.689912
    36  H    0.281691
    37  C   -0.667974
    38  H    0.284897
    39  H    0.277558
    40  H    0.276627
    41  C   -0.468144
    42  H    0.273180
    43  H    0.267059
    44  H    0.273098
    45  N   -0.306840
    46  N   -0.468121
    47  C   -0.207720
    48  H    0.262186
    49  H    0.519397
    50  H    0.570395
 Sum of Mulliken charges =   2.00000

 Dipole moment (field-independent basis, Debye):
    X=             -3.4056    Y=              0.6244    Z=             10.0240  Tot=             10.6051
 Quadrupole moment (field-independent basis, Debye-Ang):
   XX=           -102.2570   YY=           -102.0814   ZZ=            -76.5469
   XY=             -7.0672   XZ=            -12.7243   YZ=             24.8473

  Exact polarizability: 443.353 -15.050 447.179  40.655  51.877 363.460
 Approx polarizability: 335.773 -14.729 341.418  29.088  43.824 284.943

 ******    1 imaginary frequencies (negative Signs) ******

                      1                      2                      3
                      A                      A                      A
 Frequencies --     -2.8981                15.4957                35.2281
 Red. masses --      4.7482                 3.8540                 5.0372
 Frc consts  --      0.0000                 0.0005                 0.0037
 IR Inten    --      5.0608                 0.5834                 2.4309

                      4                      5                      6
                      A                      A                      A
 Frequencies --     50.8311                53.8729                59.0932
 Red. masses --      4.8700                 5.2052                 4.5064
 Frc consts  --      0.0074                 0.0089                 0.0093
 IR Inten    --      0.3872                 1.8153                 0.3093

                      7                      8                      9
                      A                      A                      A
 Frequencies --     66.1367                76.7934                90.4999
 Red. masses --      3.4026                 3.9250                 4.0421
 Frc consts  --      0.0088                 0.0136                 0.0195
 IR Inten    --      1.7441                 4.9431                 1.4479

                     10                     11                     12
                      A                      A                      A
 Frequencies --     99.6456               147.9570               155.0029
 Red. masses --      2.7174                 4.2365                 1.2498
 Frc consts  --      0.0159                 0.0546                 0.0177
 IR Inten    --      1.6116                 2.2334                 1.1277

                     13                     14                     15
                      A                      A                      A
 Frequencies --    174.7516               188.7446               193.1227
 Red. masses --      4.1108                 5.1289                 4.1878
 Frc consts  --      0.0740                 0.1077                 0.0920
 IR Inten    --      3.3606                10.1183                 1.6117

                     16                     17                     18
                      A                      A                      A
 Frequencies --    222.2224               233.7438               249.4879
 Red. masses --      4.8957                 4.7031                 5.3438
 Frc consts  --      0.1424                 0.1514                 0.1960
 IR Inten    --      6.0846                 1.3949                 1.0050

                     19                     20                     21
                      A                      A                      A
 Frequencies --    261.9230               271.2629               299.5818
 Red. masses --      4.7438                 5.3878                 5.4513
 Frc consts  --      0.1917                 0.2336                 0.2883
 IR Inten    --      6.9918                 8.1007                 4.8310

                     22                     23                     24
                      A                      A                      A
 Frequencies --    303.0968               388.7285               403.6804
 Red. masses --      4.8519                 2.7664                 2.8953
 Frc consts  --      0.2626                 0.2463                 0.2780
 IR Inten    --      1.8719                85.2924                64.9415

                     25                     26                     27
                      A                      A                      A
 Frequencies --    406.7211               410.0033               416.4772
 Red. masses --      2.6864                 4.8834                 3.0613
 Frc consts  --      0.2618                 0.4837                 0.3129
 IR Inten    --     24.8375                 7.2745                 9.3832

                     28                     29                     30
                      A                      A                      A
 Frequencies --    422.3538               442.1548               476.3200
 Red. masses --      2.9862                 3.8396                 4.3768
 Frc consts  --      0.3138                 0.4423                 0.5851
 IR Inten    --      1.6585                16.2663                29.0614

                     31                     32                     33
                      A                      A                      A
 Frequencies --    489.3088               510.8601               536.6942
 Red. masses --      4.0810                 2.5629                 7.5133
 Frc consts  --      0.5757                 0.3941                 1.2751
 IR Inten    --     12.4043                67.0637               162.6186

                     34                     35                     36
                      A                      A                      A
 Frequencies --    548.2335               572.7779               618.8965
 Red. masses --      2.5179                 4.0306                 5.4313
 Frc consts  --      0.4459                 0.7791                 1.2257
 IR Inten    --     50.5662               179.7256                 1.1940

                     37                     38                     39
                      A                      A                      A
 Frequencies --    630.6014               631.2311               644.8486
 Red. masses --      6.4332                 6.4323                 6.4929
 Frc consts  --      1.5073                 1.5101                 1.5908
 IR Inten    --      1.5362                 0.2825                 1.1820

                     40                     41                     42
                      A                      A                      A
 Frequencies --    666.1500               693.4625               706.2670
 Red. masses --      6.4315                 5.2524                 2.0101
 Frc consts  --      1.6815                 1.4882                 0.5908
 IR Inten    --      0.7277                 7.7581               109.3994

                     43                     44                     45
                      A                      A                      A
 Frequencies --    713.6463               723.8344               750.6984
 Red. masses --      4.8545                 2.2734                 6.3128
 Frc consts  --      1.4567                 0.7018                 2.0961
 IR Inten    --     12.4143                89.2792                70.8699

                     46                     47                     48
                      A                      A                      A
 Frequencies --    753.5861               767.3781               769.7432
 Red. masses --      3.5252                 1.5243                 1.7028
 Frc consts  --      1.1795                 0.5288                 0.5944
 IR Inten    --     13.4476                35.2051               114.5514

                     49                     50                     51
                      A                      A                      A
 Frequencies --    773.6315               783.7184               804.4993
 Red. masses --      1.5436                 1.3821                 1.2563
 Frc consts  --      0.5443                 0.5002                 0.4791
 IR Inten    --      7.8051               336.1693                12.0940

                     52                     53                     54
                      A                      A                      A
 Frequencies --    825.0217               874.7033               879.1629
 Red. masses --      5.5886                 1.2866                 1.9192
 Frc consts  --      2.2412                 0.5800                 0.8740
 IR Inten    --    120.3495                 4.3354                48.6055

                     55                     56                     57
                      A                      A                      A
 Frequencies --    889.2340               895.2034               940.3596
 Red. masses --      1.2423                 1.5777                 2.7328
 Frc consts  --      0.5788                 0.7450                 1.4238
 IR Inten    --      0.2218                69.0391                 2.3840

                     58                     59                     60
                      A                      A                      A
 Frequencies --    950.8678               969.0996               984.8940
 Red. masses --      2.3472                 1.3343                 1.3208
 Frc consts  --      1.2504                 0.7383                 0.7549
 IR Inten    --     26.9964                 2.0120                 1.9529

                     61                     62                     63
                      A                      A                      A
 Frequencies --    985.8209               994.3070              1017.7015
 Red. masses --      1.2446                 1.2757                 1.5545
 Frc consts  --      0.7126                 0.7431                 0.9486
 IR Inten    --      3.8090                 3.0237                 2.3845

                     64                     65                     66
                      A                      A                      A
 Frequencies --   1020.2502              1020.8720              1021.3657
 Red. masses --      3.8340                 1.7983                 2.9425
 Frc consts  --      2.3513                 1.1042                 1.8085
 IR Inten    --      7.2728                 4.4095                 7.5719

                     67                     68                     69
                      A                      A                      A
 Frequencies --   1033.3705              1034.0472              1035.8311
 Red. masses --      1.4444                 2.5269                 2.2681
 Frc consts  --      0.9087                 1.5919                 1.4338
 IR Inten    --      6.3466                52.1276                 7.5717

                     70                     71                     72
                      A                      A                      A
 Frequencies --   1042.5849              1044.6070              1048.3885
 Red. masses --      2.7470                 1.3397                 2.9023
 Frc consts  --      1.7593                 0.8613                 1.8795
 IR Inten    --      9.3707                 0.2402                70.2669

                     73                     74                     75
                      A                      A                      A
 Frequencies --   1049.6759              1062.3289              1065.1569
 Red. masses --      1.3130                 3.1749                 2.6746
 Frc consts  --      0.8524                 2.1111                 1.7879
 IR Inten    --      1.0482                53.9800                22.6825

                     76                     77                     78
                      A                      A                      A
 Frequencies --   1074.1428              1104.3848              1110.6044
 Red. masses --      5.7127                 2.6913                 2.1702
 Frc consts  --      3.8834                 1.9340                 1.5771
 IR Inten    --    440.1859                10.5047                 2.5350

                     79                     80                     81
                      A                      A                      A
 Frequencies --   1127.8056              1132.3688              1141.6124
 Red. masses --      1.6557                 1.6711                 2.9395
 Frc consts  --      1.2408                 1.2625                 2.2572
 IR Inten    --      5.7063                24.1025                70.1427

                     82                     83                     84
                      A                      A                      A
 Frequencies --   1153.5829              1157.4416              1184.2888
 Red. masses --      3.1867                 1.5720                 1.2435
 Frc consts  --      2.4986                 1.2408                 1.0276
 IR Inten    --    167.9082                12.0597                 1.0002

                     85                     86                     87
                      A                      A                      A
 Frequencies --   1194.5928              1197.6421              1227.0055
 Red. masses --      1.0943                 1.1009                 1.3082
 Frc consts  --      0.9200                 0.9303                 1.1604
 IR Inten    --      1.6083                 0.8163                27.2901

                     88                     89                     90
                      A                      A                      A
 Frequencies --   1229.3386              1236.0389              1244.0068
 Red. masses --      1.1723                 1.1519                 2.3057
 Frc consts  --      1.0438                 1.0369                 2.1023
 IR Inten    --     14.9225                 4.2346                12.6562

                     91                     92                     93
                      A                      A                      A
 Frequencies --   1249.8212              1256.5591              1271.1585
 Red. masses --      1.3894                 1.8290                 1.1548
 Frc consts  --      1.2787                 1.7015                 1.0994
 IR Inten    --     21.9011                 0.6638                13.8968

                     94                     95                     96
                      A                      A                      A
 Frequencies --   1289.8710              1302.7349              1337.5919
 Red. masses --      1.2494                 1.5069                 4.1734
 Frc consts  --      1.2247                 1.5067                 4.3993
 IR Inten    --      8.9664                47.3726                 0.8869

                     97                     98                     99
                      A                      A                      A
 Frequencies --   1343.0197              1359.1064              1380.4557
 Red. masses --      4.7578                 1.9115                 1.4977
 Frc consts  --      5.0562                 2.0803                 1.6816
 IR Inten    --      2.1477                32.2991                11.2103

                    100                    101                    102
                      A                      A                      A
 Frequencies --   1388.3026              1406.1696              1424.3134
 Red. masses --      1.4051                 1.7160                 1.5387
 Frc consts  --      1.5956                 1.9991                 1.8392
 IR Inten    --      9.1279                21.3088                 4.9566

                    103                    104                    105
                      A                      A                      A
 Frequencies --   1479.0710              1486.7347              1491.9842
 Red. masses --      1.5930                 2.1685                 2.1840
 Frc consts  --      2.0533                 2.8241                 2.8644
 IR Inten    --      1.8678                38.1626                48.1585

                    106                    107                    108
                      A                      A                      A
 Frequencies --   1500.8452              1508.7207              1526.5161
 Red. masses --      1.1013                 1.0454                 1.0712
 Frc consts  --      1.4617                 1.4020                 1.4708
 IR Inten    --     11.5889                22.1700                14.7494

                    109                    110                    111
                      A                      A                      A
 Frequencies --   1539.7854              1542.8729              1546.6243
 Red. masses --      2.1821                 2.3405                 1.9814
 Frc consts  --      3.0482                 3.2826                 2.7925
 IR Inten    --    118.4976               113.3407                 4.2517

                    112                    113                    114
                      A                      A                      A
 Frequencies --   1565.2173              1570.9663              1654.7060
 Red. masses --      2.1268                 2.2906                 5.2970
 Frc consts  --      3.0700                 3.3307                 8.5451
 IR Inten    --     56.6465                84.8527                 3.5747

                    115                    116                    117
                      A                      A                      A
 Frequencies --   1658.0649              1670.7838              1674.5241
 Red. masses --      5.3752                 5.5139                 5.3638
 Frc consts  --      8.7066                 9.0688                 8.8614
 IR Inten    --      0.2947                14.0188                20.3409

                    118                    119                    120
                      A                      A                      A
 Frequencies --   1677.7879              1688.6917              1721.6256
 Red. masses --      3.7431                 3.9624                 5.4129
 Frc consts  --      6.2080                 6.6575                 9.4527
 IR Inten    --     61.8764                32.6433               210.7028

                    121                    122                    123
                      A                      A                      A
 Frequencies --   1753.6369              3100.2531              3198.8488
 Red. masses --      5.9000                 1.0289                 1.1099
 Frc consts  --     10.6901                 5.8264                 6.6918
 IR Inten    --    448.6813                37.1599                14.0046

                    124                    125                    126
                      A                      A                      A
 Frequencies --   3219.1791              3225.3833              3225.7380
 Red. masses --      1.1085                 1.0877                 1.0876
 Frc consts  --      6.7684                 6.6669                 6.6677
 IR Inten    --      9.9933                 0.2962                 0.0943

                    127                    128                    129
                      A                      A                      A
 Frequencies --   3232.6471              3233.2045              3239.2072
 Red. masses --      1.0898                 1.0900                 1.0930
 Frc consts  --      6.7098                 6.7135                 6.7570
 IR Inten    --      1.4881                 5.9191                 6.0042

                    130                    131                    132
                      A                      A                      A
 Frequencies --   3240.2113              3241.3075              3245.6206
 Red. masses --      1.0937                 1.0895                 1.0958
 Frc consts  --      6.7655                 6.7441                 6.8008
 IR Inten    --      9.7610                 0.7932                10.7612

                    133                    134                    135
                      A                      A                      A
 Frequencies --   3247.0084              3249.9714              3253.4301
 Red. masses --      1.0970                 1.0992                 1.0961
 Frc consts  --      6.8145                 6.8402                 6.8357
 IR Inten    --      6.5370                13.1343                10.5473

                    136                    137                    138
                      A                      A                      A
 Frequencies --   3255.4592              3266.2576              3270.2105
 Red. masses --      1.0882                 1.0980                 1.0986
 Frc consts  --      6.7950                 6.9018                 6.9220
 IR Inten    --      0.1845                 2.9914                 3.5754

                    139                    140                    141
                      A                      A                      A
 Frequencies --   3278.8625              3284.6239              3294.9374
 Red. masses --      1.0919                 1.0916                 1.0989
 Frc consts  --      6.9166                 6.9388                 7.0290
 IR Inten    --      3.4458                 4.1171                10.0014

                    142                    143                    144
                      A                      A                      A
 Frequencies --   3297.8283              3600.8893              3684.3051
 Red. masses --      1.0996                 1.0818                 1.0805
 Frc consts  --      7.0460                 8.2644                 8.6413
 IR Inten    --      4.9373               355.1456               308.0328

 - Thermochemistry -
 -------------------
 Temperature   298.150 Kelvin.  Pressure   1.00000 Atm.
 Atom     1 has atomic number  6 and mass  12.00000

 Molecular mass:   374.15480 amu.
 Principal axes and moments of inertia in atomic units:
                           1         2         3
     Eigenvalues --  9254.346119913.96292**********
           X            0.99903  -0.04361   0.00572
           Y            0.04050   0.96283   0.26705
           Z           -0.01715  -0.26656   0.96366
 This molecule is an asymmetric top.
 Rotational symmetry number  1.
 Warning -- assumption of classical behavior for rotation
           may cause significant error
 Rotational temperatures (Kelvin)      0.00936     0.00874     0.00859
 Rotational constants (GHZ):           0.19502     0.18204     0.17894
    1 imaginary frequencies ignored.
 Zero-point vibrational energy    1097922.8 (Joules/Mol)
                                  262.40985 (Kcal/Mol)
 Warning -- explicit consideration of  35 degrees of freedom as
           vibrations may cause significant error
 Vibrational temperatures:     22.29    50.69    73.13    77.51    85.02
          (Kelvin)             95.16   110.49   130.21   143.37   212.88
                              223.01   251.43   271.56   277.86   319.73
                              336.31   358.96   376.85   390.29   431.03
                              436.09   559.29   580.81   585.18   589.90
                              599.22   607.67   636.16   685.32   704.01
                              735.01   772.18   788.79   824.10   890.45
                              907.29   908.20   927.79   958.44   997.74
                             1016.16  1026.78  1041.44  1080.09  1084.24
                             1104.09  1107.49  1113.08  1127.60  1157.50
                             1187.02  1258.50  1264.92  1279.41  1288.00
                             1352.97  1368.09  1394.32  1417.04  1418.38
                             1430.59  1464.25  1467.91  1468.81  1469.52
                             1486.79  1487.76  1490.33  1500.05  1502.96
                             1508.40  1510.25  1528.45  1532.52  1545.45
                             1588.96  1597.91  1622.66  1629.23  1642.53
                             1659.75  1665.30  1703.93  1718.75  1723.14
                             1765.39  1768.74  1778.38  1789.85  1798.21
                             1807.91  1828.91  1855.84  1874.34  1924.50
                             1932.31  1955.45  1986.17  1997.46  2023.16
                             2049.27  2128.05  2139.08  2146.63  2159.38
                             2170.71  2196.32  2215.41  2219.85  2225.25
                             2252.00  2260.27  2380.75  2385.59  2403.89
                             2409.27  2413.96  2429.65  2477.04  2523.09
                             4460.57  4602.43  4631.68  4640.61  4641.12
                             4651.06  4651.86  4660.50  4661.94  4663.52
                             4669.72  4671.72  4675.98  4680.96  4683.88
                             4699.42  4705.10  4717.55  4725.84  4740.68
                             4744.84  5180.88  5300.89

 Zero-point correction=                           0.418177 (Hartree/Particle)
 Thermal correction to Energy=                    0.441176
 Thermal correction to Enthalpy=                  0.442121
 Thermal correction to Gibbs Free Energy=         0.364697
 Sum of electronic and zero-point Energies=          -1415.324366
 Sum of electronic and thermal Energies=             -1415.301366
 Sum of electronic and thermal Enthalpies=           -1415.300422
 Sum of electronic and thermal Free Energies=        -1415.377846

                     E (Thermal)             CV                S
                      KCal/Mol        Cal/Mol-Kelvin    Cal/Mol-Kelvin
 Total                  276.842             91.122            162.952
 Electronic               0.000              0.000              0.000
 Translational            0.889              2.981             43.651
 Rotational               0.889              2.981             35.180
 Vibrational            275.065             85.161             84.121
 Vibration     1          0.593              1.986              7.141
 Vibration     2          0.594              1.982              5.511
 Vibration     3          0.595              1.977              4.785
 Vibration     4          0.596              1.976              4.670
 Vibration     5          0.596              1.974              4.487
 Vibration     6          0.598              1.970              4.265
 Vibration     7          0.599              1.965              3.971
 Vibration     8          0.602              1.956              3.649
 Vibration     9          0.604              1.949              3.461
 Vibration    10          0.617              1.905              2.698
 Vibration    11          0.620              1.897              2.610
 Vibration    12          0.627              1.874              2.384
 Vibration    13          0.633              1.855              2.240
 Vibration    14          0.635              1.849              2.198
 Vibration    15          0.648              1.807              1.941
 Vibration    16          0.654              1.789              1.850
 Vibration    17          0.662              1.764              1.734
 Vibration    18          0.669              1.743              1.649
 Vibration    19          0.675              1.726              1.588
 Vibration    20          0.692              1.674              1.419
 Vibration    21          0.695              1.668              1.400
 Vibration    22          0.757              1.494              1.005
 Vibration    23          0.769              1.462              0.949
 Vibration    24          0.771              1.456              0.938
 Vibration    25          0.774              1.449              0.927
 Vibration    26          0.780              1.434              0.904
 Vibration    27          0.785              1.422              0.884
 Vibration    28          0.802              1.378              0.820
 Vibration    29          0.833              1.303              0.720
 Vibration    30          0.845              1.274              0.685
 Vibration    31          0.866              1.226              0.632
 Vibration    32          0.892              1.169              0.572
 Vibration    33          0.903              1.144              0.548
 Vibration    34          0.929              1.090              0.499
 Vibration    35          0.979              0.992              0.418

                           ! Non-Optimized Parameters !
 Normal termination of Gaussian 16 at Tue Mar 27 00:49:02 2018.
