                         Program Version 4.0.1.2 - RELEASE -
|  1> !CPCM DLPNO-CCSD(T) Extrapolate(2/3,cc)  RIJCOSX GRIDX5 TightSCF KDIIS
|  2> %cpcm
|  3> smd true
|  4> solvent "Ethanol"
|  5> end
|  6> # Number of processors
|  7> %pal nprocs 24 end
|  8> # Memory per core
|  9> %maxcore 4000
| 10> %scf maxiter 500
| 11>     end
| 12> % mdci
| 13>    # Loose cut-off
| 14>    #  TCutPairs 1e-3
| 15>    #  TCutPNO 1e-6
| 16>    #  TCutMKN 1e-3
| 17>    # Normal cut-off
| 18>      TCutPairs 1e-4
| 19>      TCutPNO 3.33e-7
| 20>      TCutMKN 1e-3
| 21>    # Tight cut-off
| 22>    #TCutPairs 1e-5
| 23>    #TCutPNO 1e-7
| 24>    #TCutMKN 1e-4
| 25>    # Faster/less disk-IO for large jobs
| 26>    #LocalTrafo 3
| 27>    Density None
| 28> end
| 29> % output
| 30>    printlevel mini
| 31>    print[ P_SCFInfo ] 1
| 32>    print[ P_SCFIterInfo ] 1
| 33>    print[ P_OrbEn ] 0
| 34>    print[ P_Cartesian ] 0
| 35> end
| 36> % elprop
| 37>    Dipole False
| 38> end
| 39> * xyz 2 1
| 40>  C                  1.06725800    3.04509600   -2.22188200
| 41>  C                  0.97669000    1.79969500   -1.60527300
| 42>  C                  0.25714600    1.65507400   -0.41514800
| 43>  C                 -0.33001200    2.77900200    0.17351000
| 44>  C                 -0.20343200    4.03175800   -0.42279700
| 45>  H                  1.61050700    3.14281700   -3.15758600
| 46>  H                  1.48287200    0.94917800   -2.05229400
| 47>  H                 -0.88194000    2.68843400    1.10579100
| 48>  H                 -0.64691500    4.90158800    0.05347300
| 49>  P                  0.12370000    0.04122200    0.46938000
| 50>  C                 -1.86207800    0.28440400    0.60350700
| 51>  C                 -2.62287400    0.11753100    1.76796800
| 52>  C                 -2.56418700    0.56752100   -0.58017100
| 53>  C                 -3.99873600    0.23725500    1.73183400
| 54>  H                 -2.15359600   -0.10162600    2.71820100
| 55>  C                 -3.93611200    0.67791000   -0.58232100
| 56>  H                 -2.04577100    0.71571600   -1.52296700
| 57>  H                 -4.63686400    0.12572800    2.59991100
| 58>  H                 -4.52623100    0.89906400   -1.46304100
| 59>  C                  2.00672500   -0.29207800    0.39125000
| 60>  C                  2.57494400   -1.52872900    0.06608100
| 61>  C                  2.88039200    0.75619800    0.72316700
| 62>  C                  3.96046100   -1.71096900    0.05797700
| 63>  H                  1.95460600   -2.38396800   -0.18355800
| 64>  C                  4.26062300    0.58106700    0.72283600
| 65>  H                  2.48148100    1.73211700    0.99124600
| 66>  C                  4.80825200   -0.65746500    0.38489000
| 67>  H                  4.37120700   -2.68262900   -0.20423100
| 68>  H                  4.90947100    1.41295200    0.98437300
| 69>  H                  5.88588400   -0.79768400    0.37808100
| 70>  C                  0.48263000    4.16379600   -1.62892200
| 71>  H                  0.56980000    5.13801900   -2.10202300
| 72>  O                  0.05495300   -0.02604500    2.10400200
| 73>  C                 -0.31524700   -1.48950500   -0.50299000
| 74>  C                 -0.74631300   -2.59576000    0.23864600
| 75>  C                 -0.25530300   -1.58510500   -1.89523900
| 76>  C                 -1.09712700   -3.75685100   -0.41562900
| 77>  H                 -0.81190200   -2.56564400    1.32169300
| 78>  C                 -0.63226200   -2.76324200   -2.50730900
| 79>  H                  0.07670500   -0.76275900   -2.51727000
| 80>  H                 -1.43108300   -4.65580900    0.08710100
| 81>  H                 -0.62072000   -2.91489600   -3.57919400
| 82>  N                 -1.03333700   -3.80237000   -1.75701800
| 83>  C                  1.06635500   -0.41717200    3.04201300
| 84>  H                  0.52985800   -0.57857700    3.97971900
| 85>  H                  1.56287100   -1.34183700    2.74168700
| 86>  H                  1.80220400    0.37889200    3.17310200
| 87>  N                 -4.61208400    0.51057700    0.56943300
| 88>  H                 -5.62558600    0.60246400    0.55968200
| 89>  H                 -1.30077400   -4.66554900   -2.22750100
| 90> *
| 91>                            ****END OF INPUT****
 Total Charge           Charge          ....    2
 Multiplicity           Mult            ....    1
 Number of Electrons    NEL             ....  196
E(0)                                       ...  -1408.620710792
E(0)                                       ...  -1408.620710792
E(CORR)(strong-pairs)                      ...     -3.751371845
E(CORR)(weak-pairs)                        ...     -0.033196200
E(CORR)(corrected)                         ...     -3.784568044
E(TOT)                                     ...  -1412.405278836
 Multiplicity           Mult            ....    1
 Number of Electrons    NEL             ....  196
 Basis Dimension        Dim             .... 1136
E(0)                                       ...  -1408.913183680
E(CORR)(strong-pairs)                      ...     -4.468277274
E(CORR)(weak-pairs)                        ...     -0.042481535
E(CORR)(corrected)                         ...     -4.510758809
E(TOT)                                     ...  -1413.423942489
E(CCSD(T))                                 ...  -1413.652267224
FINAL SINGLE POINT ENERGY     -1414.213687583662
                             ****ORCA TERMINATED NORMALLY****
TOTAL RUN TIME: 0 days 6 hours 29 minutes 52 seconds 571 msec
