                         Program Version 4.0.1.2 - RELEASE -
|  1> !CPCM DLPNO-CCSD(T) Extrapolate(2/3,cc)  RIJCOSX GRIDX5 TightSCF KDIIS
|  2> %cpcm
|  3> smd true
|  4> solvent "Ethanol"
|  5> end
|  6> # Number of processors
|  7> %pal nprocs 24 end
|  8> # Memory per core
|  9> %maxcore 4000
| 10> %scf maxiter 500
| 11>     end
| 12> % mdci
| 13>    # Loose cut-off
| 14>    #  TCutPairs 1e-3
| 15>    #  TCutPNO 1e-6
| 16>    #  TCutMKN 1e-3
| 17>    # Normal cut-off
| 18>      TCutPairs 1e-4
| 19>      TCutPNO 3.33e-7
| 20>      TCutMKN 1e-3
| 21>    # Tight cut-off
| 22>    #TCutPairs 1e-5
| 23>    #TCutPNO 1e-7
| 24>    #TCutMKN 1e-4
| 25>    # Faster/less disk-IO for large jobs
| 26>    #LocalTrafo 3
| 27>    Density None
| 28> end
| 29> % output
| 30>    printlevel mini
| 31>    print[ P_SCFInfo ] 1
| 32>    print[ P_SCFIterInfo ] 1
| 33>    print[ P_OrbEn ] 0
| 34>    print[ P_Cartesian ] 0
| 35> end
| 36> % elprop
| 37>    Dipole False
| 38> end
| 39> * xyz 2 1
| 40>  C                  2.54885200   -3.22843300   -0.68052400
| 41>  C                  1.45602700   -2.39511900   -0.79045800
| 42>  C                  1.53178000   -1.08926600   -0.29373400
| 43>  C                  2.72738000   -0.65442900    0.28599800
| 44>  C                  3.79987500   -1.52019100    0.36136700
| 45>  H                  2.56359600   -4.25074800   -1.03621800
| 46>  H                  0.56499400   -2.77541800   -1.27645300
| 47>  H                  2.84818500    0.34817100    0.67887300
| 48>  H                  4.75763300   -1.25332000    0.79002800
| 49>  P                  0.08824700    0.05503900   -0.50681300
| 50>  C                  0.39415200    1.85975300   -0.26829200
| 51>  C                  0.06426700    2.76267700   -1.28666600
| 52>  C                  0.96298500    2.35272800    0.91291500
| 53>  C                  0.27061900    4.12890600   -1.11369600
| 54>  H                 -0.34372900    2.40385300   -2.22450500
| 55>  C                  1.20256600    3.71527800    1.06949800
| 56>  H                  1.22921800    1.68480500    1.72651900
| 57>  H                 -0.00820600    4.81599900   -1.90745400
| 58>  H                  1.66064400    4.07629400    1.98587700
| 59>  C                 -0.45436700   -0.14223000    1.39163100
| 60>  C                 -1.54008900    0.64071900    1.82297700
| 61>  C                  0.08849500   -1.03979800    2.31710200
| 62>  C                 -2.03115200    0.52526200    3.10176200
| 63>  H                 -2.01812200    1.35450100    1.15835700
| 64>  C                 -0.43110300   -1.13272000    3.59546700
| 65>  H                  0.91708700   -1.69524200    2.07481500
| 66>  H                 -2.86183000    1.10234400    3.48836500
| 67>  H                 -0.05213100   -1.80962200    4.35137200
| 68>  O                  0.44366100    0.11398900   -2.21825100
| 69>  C                 -1.56070000   -0.62149600   -0.98040000
| 70>  C                 -1.99906000   -1.83886100   -0.44797900
| 71>  C                 -2.40092600    0.09225600   -1.84054700
| 72>  C                 -3.25044600   -2.34604700   -0.78984600
| 73>  H                 -1.37282300   -2.40537900    0.23605000
| 74>  C                 -3.66656800   -0.40068900   -2.15092600
| 75>  H                 -2.08384200    1.03715100   -2.26754900
| 76>  H                 -3.57002100   -3.30188400   -0.38434000
| 77>  H                 -4.31721000    0.17224500   -2.80572000
| 78>  C                  1.70380600    0.50622500   -2.73716400
| 79>  H                  2.33400900   -0.37376600   -2.92209000
| 80>  H                  1.53180000    1.02210500   -3.68749300
| 81>  H                  2.24474900    1.18996700   -2.07016500
| 82>  C                 -4.09135000   -1.62345200   -1.63417300
| 83>  H                 -5.07407000   -2.01123900   -1.88781700
| 84>  N                 -1.46346400   -0.35498000    3.94941200
| 85>  H                 -1.83516700   -0.43298700    4.89383700
| 86>  N                  3.67682700   -2.76944300   -0.11287600
| 87>  C                  0.84534400    4.60857200    0.06155800
| 88>  H                  1.01844200    5.67347400    0.19007900
| 89>  H                  4.47793900   -3.39571400   -0.04713800
| 90> *
| 91>                            ****END OF INPUT****
 Total Charge           Charge          ....    2
 Multiplicity           Mult            ....    1
 Number of Electrons    NEL             ....  196
E(0)                                       ...  -1408.623228644
E(0)                                       ...  -1408.623228644
E(CORR)(strong-pairs)                      ...     -3.751816435
E(CORR)(weak-pairs)                        ...     -0.032044897
E(CORR)(corrected)                         ...     -3.783861332
E(TOT)                                     ...  -1412.407089976
 Multiplicity           Mult            ....    1
 Number of Electrons    NEL             ....  196
 Basis Dimension        Dim             .... 1136
E(0)                                       ...  -1408.912231462
E(CORR)(strong-pairs)                      ...     -4.467973813
E(CORR)(weak-pairs)                        ...     -0.043138330
E(CORR)(corrected)                         ...     -4.511112143
E(TOT)                                     ...  -1413.423343605
E(CCSD(T))                                 ...  -1413.651116747
FINAL SINGLE POINT ENERGY     -1414.211964285778
                             ****ORCA TERMINATED NORMALLY****
TOTAL RUN TIME: 0 days 7 hours 17 minutes 3 seconds 160 msec
