 Gaussian 16, Revision A.03,
 Gaussian 16:  ES64L-G16RevA.03 25-Dec-2016

 ----------------------------------------------------------------------
 # wb97xd/6-31+g(d) opt=(maxcycles=200) scrf=(solvent=ethanol,smd) freq
 =noraman geom=connectivity
 ----------------------------------------------------------------------

 ------------------------
 Int1_Pyrax_wB97XD/631g+d
 ------------------------
 Symbolic Z-matrix:
 Charge =  2 Multiplicity = 1

 SCF Done:  E(RwB97XD) =  -1415.71233215     A.U. after   16 cycles
 SCF Done:  E(RwB97XD) =  -1415.71432844     A.U. after   15 cycles
 SCF Done:  E(RwB97XD) =  -1415.71420992     A.U. after   17 cycles
 SCF Done:  E(RwB97XD) =  -1415.71474043     A.U. after   16 cycles
 SCF Done:  E(RwB97XD) =  -1415.71492722     A.U. after   14 cycles
 SCF Done:  E(RwB97XD) =  -1415.71498596     A.U. after   14 cycles
 SCF Done:  E(RwB97XD) =  -1415.71502275     A.U. after   13 cycles
 SCF Done:  E(RwB97XD) =  -1415.71495523     A.U. after   13 cycles
 SCF Done:  E(RwB97XD) =  -1415.71502081     A.U. after   13 cycles
 SCF Done:  E(RwB97XD) =  -1415.71503135     A.U. after   13 cycles
 SCF Done:  E(RwB97XD) =  -1415.71505446     A.U. after   13 cycles
 SCF Done:  E(RwB97XD) =  -1415.71502230     A.U. after   12 cycles
 SCF Done:  E(RwB97XD) =  -1415.71500977     A.U. after   14 cycles
 SCF Done:  E(RwB97XD) =  -1415.71504759     A.U. after   14 cycles
 SCF Done:  E(RwB97XD) =  -1415.71504646     A.U. after   10 cycles
 SCF Done:  E(RwB97XD) =  -1415.71504037     A.U. after   13 cycles
 SCF Done:  E(RwB97XD) =  -1415.71504575     A.U. after   13 cycles
 SCF Done:  E(RwB97XD) =  -1415.71504539     A.U. after   10 cycles
 Optimization completed.
    -- Stationary point found.
 Normal termination of Gaussian 16 at Wed Mar 14 09:54:31 2018.

 ----------------------------------------------------------------------
 #N Geom=AllCheck Guess=TCheck SCRF=Check GenChk RwB97XD/6-31+G(d) Freq
 ----------------------------------------------------------------------

 Structure from the checkpoint file:  "Int3hdjkd.chk"
 ------------------------
 Int1_Pyrax_wB97XD/631g+d
 ------------------------
 Charge =  2 Multiplicity = 1

                         Standard orientation:
 ---------------------------------------------------------------------
 Center     Atomic      Atomic             Coordinates (Angstroms)
 Number     Number       Type             X           Y           Z
 ---------------------------------------------------------------------
      1          6           0       -1.888391   -0.993555    3.054643
      2          6           0       -1.299233   -1.022216    1.811269
      3          6           0       -0.485462    0.036745    1.373676
      4          6           0       -0.327074    1.119842    2.245778
      5          6           0       -0.932554    1.116450    3.488122
      6          1           0       -2.516979   -1.783210    3.447031
      7          1           0       -1.480660   -1.891097    1.185388
      8          1           0        0.265901    1.987343    1.979960
      9          1           0       -0.839499    1.922364    4.205836
     10         15           0        0.199753   -0.013038   -0.490641
     11          6           0        0.884675   -1.711025   -0.261779
     12          6           0        1.504994   -2.085866    0.937737
     13          6           0        0.799002   -2.648538   -1.298033
     14          6           0        2.043678   -3.360250    1.088406
     15          1           0        1.574365   -1.395543    1.772424
     16          6           0        1.306761   -3.935125   -1.132475
     17          1           0        0.338205   -2.376767   -2.240942
     18          1           0        2.537772   -3.625683    2.018664
     19          1           0        1.216053   -4.654025   -1.941867
     20          6           0        1.334206    1.410130   -0.253596
     21          6           0        2.429970    1.320850    0.609184
     22          6           0        1.127196    2.586177   -0.982010
     23          6           0        3.304580    2.396589    0.745715
     24          1           0        2.615385    0.417153    1.181243
     25          6           0        1.987062    3.670269   -0.821661
     26          1           0        0.303419    2.660944   -1.686590
     27          1           0        4.159967    2.310268    1.409774
     28          1           0        1.808846    4.583370   -1.382674
     29          8           0        0.443481   -0.020191   -2.216756
     30          6           0       -1.579675    0.264833   -0.969651
     31          6           0       -2.210734    1.481201   -0.688649
     32          6           0       -2.316712   -0.756127   -1.578758
     33          6           0       -3.532368    1.657605   -1.039020
     34          1           0       -1.692835    2.296727   -0.196513
     35          6           0       -3.641958   -0.540032   -1.892157
     36          1           0       -1.879304   -1.718099   -1.817007
     37          1           0       -4.082650    2.574080   -0.867108
     38          1           0       -4.276822   -1.281303   -2.360940
     39          6           0        1.738208   -0.047559   -2.798077
     40          1           0        2.054827    0.966153   -3.072150
     41          1           0        2.492491   -0.477142   -2.126314
     42          1           0        1.691948   -0.663575   -3.702294
     43          6           0        3.079094    3.576797    0.039651
     44          1           0        3.756582    4.418365    0.154451
     45          6           0        1.937773   -4.291843    0.056903
     46          1           0        2.345560   -5.291279    0.180621
     47          7           0       -1.684985    0.068744    3.855819
     48          7           0       -4.202792    0.650314   -1.622128
     49          1           0       -5.180086    0.794682   -1.870685
     50          1           0       -2.120434    0.077875    4.776219
 ---------------------------------------------------------------------

 SCF Done:  E(RwB97XD) =  -1415.71504539     A.U. after    2 cycles

 The electronic state is 1-A.
 Alpha  occ. eigenvalues --  -77.37302 -19.27231 -14.58148 -14.57562 -10.40022
 Alpha  occ. eigenvalues --  -10.39965 -10.39412 -10.39213 -10.37996 -10.35623
 Alpha  occ. eigenvalues --  -10.35505 -10.35274 -10.34510 -10.34408 -10.33556
 Alpha  occ. eigenvalues --  -10.33512 -10.33351 -10.32591 -10.32399 -10.32392
 Alpha  occ. eigenvalues --  -10.32324 -10.32080 -10.31893 -10.31797 -10.31771
 Alpha  occ. eigenvalues --  -10.31755 -10.31719  -6.78308  -4.93193  -4.93153
 Alpha  occ. eigenvalues --   -4.93107  -1.14897  -1.14258  -1.11977  -0.98447
 Alpha  occ. eigenvalues --   -0.97578  -0.97134  -0.95201  -0.92725  -0.91892
 Alpha  occ. eigenvalues --   -0.88753  -0.86541  -0.86377  -0.86189  -0.82913
 Alpha  occ. eigenvalues --   -0.79288  -0.78157  -0.77962  -0.77284  -0.74001
 Alpha  occ. eigenvalues --   -0.71790  -0.71471  -0.71184  -0.70948  -0.70624
 Alpha  occ. eigenvalues --   -0.68082  -0.64024  -0.62768  -0.62589  -0.61657
 Alpha  occ. eigenvalues --   -0.60207  -0.59534  -0.59152  -0.58496  -0.56947
 Alpha  occ. eigenvalues --   -0.56685  -0.56248  -0.55869  -0.55720  -0.55301
 Alpha  occ. eigenvalues --   -0.55101  -0.54868  -0.53633  -0.53125  -0.52891
 Alpha  occ. eigenvalues --   -0.52066  -0.51388  -0.50702  -0.49591  -0.49268
 Alpha  occ. eigenvalues --   -0.48386  -0.47487  -0.46828  -0.45067  -0.44258
 Alpha  occ. eigenvalues --   -0.43787  -0.43676  -0.42812  -0.41461  -0.40190
 Alpha  occ. eigenvalues --   -0.38901  -0.38360  -0.36793  -0.35928  -0.34780
 Alpha  occ. eigenvalues --   -0.34574  -0.34443  -0.34250
 Alpha virt. eigenvalues --   -0.03817  -0.01273   0.01082   0.01455   0.02084
 Alpha virt. eigenvalues --    0.03240   0.04109   0.04743   0.05086   0.05753
 Alpha virt. eigenvalues --    0.06005   0.06416   0.07492   0.07839   0.08237

 Mulliken charges:
               1
     1  C   -0.773762
     2  C    0.631602
     3  C   -0.536954
     4  C    0.948004
     5  C   -0.813975
     6  H    0.312415
     7  H    0.302015
     8  H    0.298604
     9  H    0.312707
    10  P    0.224924
    11  C    0.101264
    12  C   -0.122100
    13  C   -0.149172
    14  C   -0.408350
    15  H    0.264277
    16  C   -0.395371
    17  H    0.271600
    18  H    0.256024
    19  H    0.255028
    20  C   -0.181981
    21  C    0.360801
    22  C   -0.079737
    23  C   -0.625276
    24  H    0.264333
    25  C   -0.687235
    26  H    0.274667
    27  H    0.254947
    28  H    0.255989
    29  O   -0.524983
    30  C   -0.662538
    31  C    0.845751
    32  C    1.240894
    33  C   -0.805795
    34  H    0.318457
    35  C   -1.098709
    36  H    0.313868
    37  H    0.318971
    38  H    0.319218
    39  C   -0.332811
    40  H    0.232291
    41  H    0.242319
    42  H    0.232103
    43  C   -0.225284
    44  H    0.255426
    45  C   -0.244931
    46  H    0.256678
    47  N   -0.332993
    48  N   -0.304548
    49  H    0.573507
    50  H    0.567824
 Sum of Mulliken charges =   2.00000

 Dipole moment (field-independent basis, Debye):
    X=            -19.3201    Y=              2.2259    Z=              8.5217  Tot=             21.2330
 Quadrupole moment (field-independent basis, Debye-Ang):
   XX=            -61.9205   YY=           -114.0669   ZZ=            -84.3724
   XY=             -7.0572   XZ=              6.9823   YZ=              2.9455

  Exact polarizability: 387.012   8.328 458.540  32.705  16.309 388.687
 Approx polarizability: 298.682   6.485 351.487  27.421  13.309 307.012

                      1                      2                      3
                      A                      A                      A
 Frequencies --     20.9818                36.3405                53.4953
 Red. masses --      3.7766                 5.0758                 5.1097
 Frc consts  --      0.0010                 0.0039                 0.0086
 IR Inten    --      0.8927                 0.9999                 1.9371

                      4                      5                      6
                      A                      A                      A
 Frequencies --     56.6268                68.6814                76.1759
 Red. masses --      5.1733                 4.9028                 4.6974
 Frc consts  --      0.0098                 0.0136                 0.0161
 IR Inten    --      4.6254                 6.4352                 0.4744

                      7                      8                      9
                      A                      A                      A
 Frequencies --     80.7374                91.3183               105.3830
 Red. masses --      3.9448                 3.5613                 3.9523
 Frc consts  --      0.0152                 0.0175                 0.0259
 IR Inten    --      1.1989                 1.4614                 1.6101

                     10                     11                     12
                      A                      A                      A
 Frequencies --    113.9440               132.1022               161.2080
 Red. masses --      3.7641                 1.0830                 3.4827
 Frc consts  --      0.0288                 0.0111                 0.0533
 IR Inten    --      4.5697                 0.1907                 2.1977

                     13                     14                     15
                      A                      A                      A
 Frequencies --    198.5076               208.0498               218.1660
 Red. masses --      4.1850                 5.4469                 4.5091
 Frc consts  --      0.0972                 0.1389                 0.1264
 IR Inten    --      6.1702                 1.2706                 0.1715

                     16                     17                     18
                      A                      A                      A
 Frequencies --    231.9632               235.8418               249.7158
 Red. masses --      5.0578                 4.5382                 5.8056
 Frc consts  --      0.1603                 0.1487                 0.2133
 IR Inten    --      0.9677                 2.8530                 2.1214

                     19                     20                     21
                      A                      A                      A
 Frequencies --    254.5008               276.2312               285.4680
 Red. masses --      4.9497                 4.7686                 4.7332
 Frc consts  --      0.1889                 0.2144                 0.2273
 IR Inten    --     13.4134                 0.7431                 5.6518

                     22                     23                     24
                      A                      A                      A
 Frequencies --    314.8137               329.4272               401.0107
 Red. masses --      4.7642                 6.5806                 3.0832
 Frc consts  --      0.2782                 0.4208                 0.2921
 IR Inten    --     15.3063                18.1541                 3.3263

                     25                     26                     27
                      A                      A                      A
 Frequencies --    405.2949               410.6119               416.3723
 Red. masses --      4.6079                 2.8116                 2.8756
 Frc consts  --      0.4460                 0.2793                 0.2937
 IR Inten    --     19.1152                 0.7152                 2.7927

                     28                     29                     30
                      A                      A                      A
 Frequencies --    433.5137               463.3164               493.2386
 Red. masses --      3.0065                 5.0314                 4.2548
 Frc consts  --      0.3329                 0.6363                 0.6099
 IR Inten    --      0.6423                13.5524                 6.9871

                     31                     32                     33
                      A                      A                      A
 Frequencies --    524.7880               542.0503               549.6966
 Red. masses --      4.4924                 3.7723                 5.5518
 Frc consts  --      0.7289                 0.6530                 0.9884
 IR Inten    --     15.2455                48.1470               627.1429

                     34                     35                     36
                      A                      A                      A
 Frequencies --    555.7121               586.1726               632.9786
 Red. masses --      7.9903                 5.7868                 6.4090
 Frc consts  --      1.4538                 1.1715                 1.5129
 IR Inten    --    200.5342               242.4338                 0.8514

                     37                     38                     39
                      A                      A                      A
 Frequencies --    636.4435               663.5177               664.7281
 Red. masses --      6.4333                 6.5365                 6.5287
 Frc consts  --      1.5353                 1.6955                 1.6997
 IR Inten    --      6.5798                 0.0277                 3.3959

                     40                     41                     42
                      A                      A                      A
 Frequencies --    679.9221               692.1025               718.8014
 Red. masses --      6.9459                 6.5169                 1.9615
 Frc consts  --      1.8919                 1.8392                 0.5971
 IR Inten    --     66.6328                 4.0958                29.3235

                     43                     44                     45
                      A                      A                      A
 Frequencies --    726.5330               728.7764               740.1910
 Red. masses --      2.2310                 4.1024                 5.0652
 Frc consts  --      0.6939                 1.2837                 1.6351
 IR Inten    --    109.5210                79.1516               111.5073

                     46                     47                     48
                      A                      A                      A
 Frequencies --    750.5193               762.3451               774.3502
 Red. masses --      3.9229                 3.3874                 1.7331
 Frc consts  --      1.3019                 1.1599                 0.6123
 IR Inten    --     47.9304                67.3626                10.0738

                     49                     50                     51
                      A                      A                      A
 Frequencies --    780.0638               782.1769               788.6325
 Red. masses --      1.2800                 1.7107                 1.2999
 Frc consts  --      0.4589                 0.6166                 0.4763
 IR Inten    --    194.6783                 6.8049                97.5636

                     52                     53                     54
                      A                      A                      A
 Frequencies --    881.1880               888.5598               895.0337
 Red. masses --      1.2492                 1.2391                 1.2452
 Frc consts  --      0.5715                 0.5764                 0.5877
 IR Inten    --      0.9284                 0.0344                 0.1247

                     55                     56                     57
                      A                      A                      A
 Frequencies --    897.6000               924.4136               932.7279
 Red. masses --      1.2523                 1.3514                 1.3356
 Frc consts  --      0.5944                 0.6804                 0.6846
 IR Inten    --      0.6701                 6.0860                 8.6758

                     58                     59                     60
                      A                      A                      A
 Frequencies --    966.6436               983.1144              1018.5024
 Red. masses --      1.3426                 1.3251                 2.0881
 Frc consts  --      0.7392                 0.7546                 1.2762
 IR Inten    --      1.2011                 1.7929                 0.7232

                     61                     62                     63
                      A                      A                      A
 Frequencies --   1022.6235              1023.1440              1026.0505
 Red. masses --      4.0405                 1.5812                 1.9109
 Frc consts  --      2.4895                 0.9752                 1.1853
 IR Inten    --      3.8097                 1.0651                 4.0637

                     64                     65                     66
                      A                      A                      A
 Frequencies --   1027.3756              1029.0647              1030.1005
 Red. masses --      1.4178                 1.3917                 1.3707
 Frc consts  --      0.8817                 0.8683                 0.8569
 IR Inten    --      0.2297                 3.5138                 2.8674

                     67                     68                     69
                      A                      A                      A
 Frequencies --   1034.5484              1036.7625              1038.7532
 Red. masses --      1.3788                 5.6729                 4.7985
 Frc consts  --      0.8694                 3.5927                 3.0506
 IR Inten    --      0.9318                 0.9407                 1.1838

                     70                     71                     72
                      A                      A                      A
 Frequencies --   1040.9865              1047.6925              1062.6699
 Red. masses --      1.3245                 1.3231                 3.0939
 Frc consts  --      0.8457                 0.8557                 2.0585
 IR Inten    --      0.4173                 1.0260                 0.7810

                     73                     74                     75
                      A                      A                      A
 Frequencies --   1064.3318              1083.2515              1094.3288
 Red. masses --      2.8416                 8.2893                 6.2123
 Frc consts  --      1.8966                 5.7309                 4.3833
 IR Inten    --      2.0590               404.3279                 7.5576

                     76                     77                     78
                      A                      A                      A
 Frequencies --   1103.8549              1120.9292              1122.5511
 Red. masses --      2.9456                 1.8415                 1.6937
 Frc consts  --      2.1147                 1.3632                 1.2574
 IR Inten    --     21.4998                53.6907                 6.8538

                     79                     80                     81
                      A                      A                      A
 Frequencies --   1123.7664              1129.8984              1141.9435
 Red. masses --      2.1948                 1.8333                 2.4929
 Frc consts  --      1.6330                 1.3790                 1.9154
 IR Inten    --     51.1993                32.0559                53.1634

                     82                     83                     84
                      A                      A                      A
 Frequencies --   1150.0883              1154.1505              1155.9193
 Red. masses --      1.7611                 1.7289                 2.4202
 Frc consts  --      1.3725                 1.3569                 1.9053
 IR Inten    --      4.4420                 3.8095                19.3970

                     85                     86                     87
                      A                      A                      A
 Frequencies --   1188.0366              1192.3503              1193.5398
 Red. masses --      1.2684                 1.0995                 1.0970
 Frc consts  --      1.0548                 0.9210                 0.9207
 IR Inten    --      4.4706                 0.2072                 0.5873

                     88                     89                     90
                      A                      A                      A
 Frequencies --   1216.0014              1223.1754              1233.7907
 Red. masses --      1.3539                 1.1329                 1.1476
 Frc consts  --      1.1795                 0.9987                 1.0292
 IR Inten    --     26.3701                 5.0090                 2.4491

                     91                     92                     93
                      A                      A                      A
 Frequencies --   1252.0890              1252.7253              1296.3200
 Red. masses --      1.1588                 1.1584                 1.7329
 Frc consts  --      1.0703                 1.0711                 1.7157
 IR Inten    --      6.8607                 3.2462                 7.7828

                     94                     95                     96
                      A                      A                      A
 Frequencies --   1298.4307              1332.5541              1338.4369
 Red. masses --      1.7612                 3.1197                 3.7800
 Frc consts  --      1.7494                 3.2638                 3.9897
 IR Inten    --     22.7562                 1.8589                 0.5836

                     97                     98                     99
                      A                      A                      A
 Frequencies --   1347.8812              1349.4801              1368.8671
 Red. masses --      1.5443                 1.7354                 1.7175
 Frc consts  --      1.6530                 1.8620                 1.8961
 IR Inten    --      1.6467                 3.3847                 4.0696

                    100                    101                    102
                      A                      A                      A
 Frequencies --   1383.3609              1409.4205              1410.5990
 Red. masses --      1.3886                 1.9069                 2.0508
 Frc consts  --      1.5657                 2.2319                 2.4043
 IR Inten    --      6.6590                21.9588                30.9265

                    103                    104                    105
                      A                      A                      A
 Frequencies --   1487.9018              1490.5264              1507.9851
 Red. masses --      2.1640                 2.1644                 1.1365
 Frc consts  --      2.8226                 2.8331                 1.5227
 IR Inten    --     16.1511                55.4578                 2.7603

                    106                    107                    108
                      A                      A                      A
 Frequencies --   1510.7285              1525.0387              1538.1893
 Red. masses --      1.0439                 1.0465                 2.0652
 Frc consts  --      1.4037                 1.4340                 2.8789
 IR Inten    --     11.9248                14.5681                13.5070

                    109                    110                    111
                      A                      A                      A
 Frequencies --   1542.8420              1546.1413              1550.7921
 Red. masses --      2.0312                 2.0286                 2.0825
 Frc consts  --      2.8487                 2.8572                 2.9509
 IR Inten    --     31.0904                 4.7477                39.0977

                    112                    113                    114
                      A                      A                      A
 Frequencies --   1556.8994              1558.7615              1657.4963
 Red. masses --      2.2485                 2.2650                 5.4902
 Frc consts  --      3.2112                 3.2425                 8.8868
 IR Inten    --     24.9021               129.1358                 1.5927

                    115                    116                    117
                      A                      A                      A
 Frequencies --   1659.7443              1672.9372              1675.6638
 Red. masses --      5.4986                 5.7514                 5.5322
 Frc consts  --      8.9245                 9.4839                 9.1521
 IR Inten    --      2.6210                 7.3236                 0.7392

                    118                    119                    120
                      A                      A                      A
 Frequencies --   1680.3282              1681.4474              1705.2886
 Red. masses --      3.3921                 3.1487                 5.1201
 Frc consts  --      5.6429                 5.2450                 8.7725
 IR Inten    --     48.9826                96.2567               136.2092

                    121                    122                    123
                      A                      A                      A
 Frequencies --   1713.2009              3046.4316              3119.2455
 Red. masses --      5.2633                 1.0304                 1.1055
 Frc consts  --      9.1017                 5.6341                 6.3372
 IR Inten    --    170.4694                96.8907                59.1455

                    124                    125                    126
                      A                      A                      A
 Frequencies --   3137.2356              3218.0516              3219.0681
 Red. masses --      1.1052                 1.0874                 1.0872
 Frc consts  --      6.4091                 6.6350                 6.6376
 IR Inten    --     60.1373                 0.2357                 0.1167

                    127                    128                    129
                      A                      A                      A
 Frequencies --   3223.3209              3226.0596              3229.8489
 Red. masses --      1.0895                 1.0901                 1.0928
 Frc consts  --      6.6695                 6.6843                 6.7168
 IR Inten    --      0.1687                 6.8213                11.6667

                    130                    131                    132
                      A                      A                      A
 Frequencies --   3233.8980              3237.3529              3238.8116
 Red. masses --      1.0940                 1.0953                 1.0917
 Frc consts  --      6.7407                 6.7635                 6.7472
 IR Inten    --     13.2428                16.2709                 2.2046

                    133                    134                    135
                      A                      A                      A
 Frequencies --   3241.8390              3243.9866              3262.1028
 Red. masses --      1.0983                 1.0991                 1.0913
 Frc consts  --      6.8006                 6.8149                 6.8423
 IR Inten    --     23.5091                17.2421                 6.3770

                    136                    137                    138
                      A                      A                      A
 Frequencies --   3262.7569              3272.5917              3276.7867
 Red. masses --      1.0929                 1.0927                 1.0920
 Frc consts  --      6.8550                 6.8947                 6.9080
 IR Inten    --      5.9007                 6.9814                 4.8038

                    139                    140                    141
                      A                      A                      A
 Frequencies --   3286.7271              3288.6144              3293.0786
 Red. masses --      1.0976                 1.0987                 1.0988
 Frc consts  --      6.9862                 7.0011                 7.0203
 IR Inten    --      4.3759                 1.8714                 7.9563

                    142                    143                    144
                      A                      A                      A
 Frequencies --   3296.4154              3599.2861              3611.0700
 Red. masses --      1.0996                 1.0817                 1.0816
 Frc consts  --      7.0399                 8.2565                 8.3097
 IR Inten    --      5.0160               363.2448               347.6465

 - Thermochemistry -
 -------------------
 Temperature   298.150 Kelvin.  Pressure   1.00000 Atm.
 Atom     1 has atomic number  6 and mass  12.00000

 Molecular mass:   374.15480 amu.
 Principal axes and moments of inertia in atomic units:
                           1         2         3
     Eigenvalues --  9415.664049662.58191**********
           X            0.99955   0.02965  -0.00548
           Y           -0.02960   0.99952   0.00946
           Z            0.00576  -0.00930   0.99994
 This molecule is an asymmetric top.
 Rotational symmetry number  1.
 Warning -- assumption of classical behavior for rotation
           may cause significant error
 Rotational temperatures (Kelvin)      0.00920     0.00896     0.00784
 Rotational constants (GHZ):           0.19167     0.18678     0.16341
 Zero-point vibrational energy    1100382.9 (Joules/Mol)
                                  262.99783 (Kcal/Mol)
 Warning -- explicit consideration of  35 degrees of freedom as
           vibrations may cause significant error
 Vibrational temperatures:     30.19    52.29    76.97    81.47    98.82
          (Kelvin)            109.60   116.16   131.39   151.62   163.94
                              190.07   231.94   285.61   299.34   313.89
                              333.74   339.32   359.29   366.17   397.44
                              410.72   452.95   473.97   576.96   583.13
                              590.78   599.07   623.73   666.61   709.66
                              755.05   779.89   790.89   799.55   843.37
                              910.72   915.70   954.65   956.40   978.26
                              995.78  1034.19  1045.32  1048.55  1064.97
                             1079.83  1096.84  1114.12  1122.34  1125.38
                             1134.67  1267.83  1278.44  1287.75  1291.45
                             1330.02  1341.99  1390.78  1414.48  1465.40
                             1471.33  1472.08  1476.26  1478.16  1480.59
                             1482.08  1488.48  1491.67  1494.53  1497.75
                             1507.40  1528.95  1531.34  1558.56  1574.50
                             1588.20  1612.77  1615.10  1616.85  1625.67
                             1643.00  1654.72  1660.57  1663.11  1709.32
                             1715.53  1717.24  1749.55  1759.88  1775.15
                             1801.48  1802.39  1865.12  1868.15  1917.25
                             1925.71  1939.30  1941.60  1969.49  1990.35
                             2027.84  2029.54  2140.76  2144.54  2169.65
                             2173.60  2194.19  2213.11  2219.81  2224.55
                             2231.24  2240.03  2242.71  2384.77  2388.00
                             2406.98  2410.91  2417.62  2419.23  2453.53
                             2464.91  4383.14  4487.90  4513.78  4630.06
                             4631.52  4637.64  4641.58  4647.03  4652.86
                             4657.83  4659.93  4664.28  4667.37  4693.44
                             4694.38  4708.53  4714.57  4728.87  4731.58
                             4738.01  4742.81  5178.57  5195.52

 Zero-point correction=                           0.419114 (Hartree/Particle)
 Thermal correction to Energy=                    0.442491
 Thermal correction to Enthalpy=                  0.443435
 Thermal correction to Gibbs Free Energy=         0.365690
 Sum of electronic and zero-point Energies=          -1415.295932
 Sum of electronic and thermal Energies=             -1415.272554
 Sum of electronic and thermal Enthalpies=           -1415.271610
 Sum of electronic and thermal Free Energies=        -1415.349355

                     E (Thermal)             CV                S
                      KCal/Mol        Cal/Mol-Kelvin    Cal/Mol-Kelvin
 Total                  277.667             92.137            163.629
 Electronic               0.000              0.000              0.000
 Translational            0.889              2.981             43.651
 Rotational               0.889              2.981             35.262
 Vibrational            275.890             86.176             84.716
 Vibration     1          0.593              1.986              6.539
 Vibration     2          0.594              1.982              5.449
 Vibration     3          0.596              1.976              4.684
 Vibration     4          0.596              1.975              4.571
 Vibration     5          0.598              1.969              4.191
 Vibration     6          0.599              1.965              3.987
 Vibration     7          0.600              1.962              3.873
 Vibration     8          0.602              1.955              3.632
 Vibration     9          0.605              1.945              3.352
 Vibration    10          0.607              1.938              3.201
 Vibration    11          0.612              1.921              2.915
 Vibration    12          0.622              1.890              2.536
 Vibration    13          0.637              1.842              2.147
 Vibration    14          0.641              1.828              2.061
 Vibration    15          0.646              1.813              1.974
 Vibration    16          0.653              1.792              1.864
 Vibration    17          0.655              1.786              1.834
 Vibration    18          0.663              1.763              1.733
 Vibration    19          0.665              1.755              1.699
 Vibration    20          0.678              1.717              1.557
 Vibration    21          0.683              1.701              1.501
 Vibration    22          0.702              1.645              1.337
 Vibration    23          0.712              1.617              1.263
 Vibration    24          0.767              1.468              0.959
 Vibration    25          0.770              1.459              0.943
 Vibration    26          0.775              1.447              0.924
 Vibration    27          0.780              1.435              0.904
 Vibration    28          0.794              1.397              0.847
 Vibration    29          0.821              1.331              0.757
 Vibration    30          0.849              1.265              0.675
 Vibration    31          0.880              1.195              0.599
 Vibration    32          0.897              1.157              0.561
 Vibration    33          0.905              1.140              0.545
 Vibration    34          0.911              1.127              0.532
 Vibration    35          0.943              1.061              0.474

                           ! Non-Optimized Parameters !
 Normal termination of Gaussian 16 at Wed Mar 14 11:18:42 2018.
