                         Program Version 4.0.1.2 - RELEASE -
|  1> !CPCM DLPNO-CCSD(T) Extrapolate(2/3,cc)  RIJCOSX GRIDX5 TightSCF KDIIS
|  2> %cpcm
|  3> smd true
|  4> solvent "Ethanol"
|  5> end
|  6> # Number of processors
|  7> %pal nprocs 24 end
|  8> # Memory per core
|  9> %maxcore 4000
| 10> %scf maxiter 500
| 11>     end
| 12> % mdci
| 13>    # Loose cut-off
| 14>    #  TCutPairs 1e-3
| 15>    #  TCutPNO 1e-6
| 16>    #  TCutMKN 1e-3
| 17>    # Normal cut-off
| 18>      TCutPairs 1e-4
| 19>      TCutPNO 3.33e-7
| 20>      TCutMKN 1e-3
| 21>    # Tight cut-off
| 22>    #TCutPairs 1e-5
| 23>    #TCutPNO 1e-7
| 24>    #TCutMKN 1e-4
| 25>    # Faster/less disk-IO for large jobs
| 26>    #LocalTrafo 3
| 27>    Density None
| 28> end
| 29> % output
| 30>    printlevel mini
| 31>    print[ P_SCFInfo ] 1
| 32>    print[ P_SCFIterInfo ] 1
| 33>    print[ P_OrbEn ] 0
| 34>    print[ P_Cartesian ] 0
| 35> end
| 36> % elprop
| 37>    Dipole False
| 38> end
| 39> * xyz 2 1
| 40>  C                 -1.44067200    3.03873000   -1.77331700
| 41>  C                 -0.51585300    2.11068900   -1.30625000
| 42>  C                 -0.62476300    1.62623100    0.00370300
| 43>  C                 -1.65356000    2.07115900    0.84201800
| 44>  C                 -2.57281400    3.00024700    0.36413700
| 45>  H                 -1.35506800    3.41852700   -2.78692700
| 46>  H                  0.28452400    1.77134800   -1.95811100
| 47>  H                 -1.74096200    1.69397000    1.85610000
| 48>  H                 -3.37037100    3.34881700    1.01354400
| 49>  P                  0.45630700    0.30380500    0.55321700
| 50>  C                 -1.68453700   -1.24520500   -0.05776600
| 51>  C                 -2.31294900   -1.45674100    1.17610600
| 52>  C                 -2.48005300   -0.90947100   -1.15817400
| 53>  C                 -3.67952600   -1.31358400    1.28342100
| 54>  H                 -1.75853700   -1.72051500    2.06824200
| 55>  C                 -3.84294200   -0.77349100   -1.00458600
| 56>  H                 -2.05661500   -0.74421600   -2.14080900
| 57>  H                 -4.22727900   -1.45662800    2.20620100
| 58>  H                 -4.51415900   -0.50740500   -1.81112600
| 59>  C                  2.16470200    0.66012900    0.14644600
| 60>  C                  3.11243200   -0.36119800   -0.01092100
| 61>  C                  2.55903500    2.00465900    0.08021900
| 62>  C                  4.44119900   -0.03255300   -0.25453700
| 63>  H                  2.82782500   -1.40444100    0.06161000
| 64>  C                  3.89167300    2.32100100   -0.16235300
| 65>  H                  1.83609300    2.80330500    0.21769600
| 66>  C                  4.83000000    1.30457400   -0.33385700
| 67>  H                  5.17391500   -0.82385100   -0.38042500
| 68>  H                  4.19459100    3.36217700   -0.21676700
| 69>  H                  5.86946800    1.55480400   -0.52604700
| 70>  C                 -2.46957400    3.47962800   -0.94122300
| 71>  H                 -3.19102300    4.20286900   -1.31070500
| 72>  O                  0.24139900    0.20934800    2.13213700
| 73>  C                 -0.15092300   -1.33431600   -0.18479900
| 74>  C                  0.40201000   -2.49435900    0.62167900
| 75>  C                  0.32707900   -1.42675600   -1.61923000
| 76>  C                  1.07260100   -3.51066800    0.05210500
| 77>  H                  0.23358100   -2.52128800    1.69196400
| 78>  C                  1.01150500   -2.48611400   -2.08305100
| 79>  H                  0.12171200   -0.61019100   -2.30240500
| 80>  H                  1.43194500   -4.35081500    0.63591400
| 81>  H                  1.33355200   -2.54500100   -3.11671000
| 82>  N                  1.36172900   -3.54999300   -1.28910200
| 83>  C                  1.31872500   -0.03534100    3.07045000
| 84>  H                  0.83012400   -0.16089700    4.03608600
| 85>  H                  1.86314600   -0.94232200    2.80071600
| 86>  H                  1.98803100    0.82720400    3.09137600
| 87>  N                 -4.39834700   -0.97365600    0.20152600
| 88>  H                 -5.40684300   -0.86889500    0.29885700
| 89>  H                  1.89611200   -4.31636800   -1.67189700
| 90> *
| 91>
| 92>                          ****END OF INPUT****
 Total Charge           Charge          ....    2
 Multiplicity           Mult            ....    1
 Number of Electrons    NEL             ....  196
E(0)                                       ...  -1408.673911086
E(0)                                       ...  -1408.673911086
E(CORR)(strong-pairs)                      ...     -3.738749689
E(CORR)(weak-pairs)                        ...     -0.033030669
E(CORR)(corrected)                         ...     -3.771780358
E(TOT)                                     ...  -1412.445691444
 Multiplicity           Mult            ....    1
 Number of Electrons    NEL             ....  196
 Basis Dimension        Dim             .... 1136
E(0)                                       ...  -1408.967249079
E(CORR)(strong-pairs)                      ...     -4.455607268
E(CORR)(weak-pairs)                        ...     -0.042644419
E(CORR)(corrected)                         ...     -4.498251686
E(TOT)                                     ...  -1413.465500765
E(CCSD(T))                                 ...  -1413.688806348
FINAL SINGLE POINT ENERGY     -1414.250426363617
                             ****ORCA TERMINATED NORMALLY****
TOTAL RUN TIME: 0 days 6 hours 16 minutes 30 seconds 718 msec
