 Gaussian 16, Revision A.03,
 Gaussian 16:  ES64L-G16RevA.03 25-Dec-2016

 ----------------------------------------------------------------------
 # wb97xd/6-31+g(d) opt=(maxcycles=200) scrf=(solvent=ethanol,smd) freq
 =noraman geom=connectivity
 ----------------------------------------------------------------------

 ------------------------
 Int1_Pyrax_wB97XD/631g+d
 ------------------------
 Symbolic Z-matrix:
 Charge =  2 Multiplicity = 1

 SCF Done:  E(RwB97XD) =  -1415.70555855     A.U. after   16 cycles
 SCF Done:  E(RwB97XD) =  -1415.70594930     A.U. after   15 cycles
 SCF Done:  E(RwB97XD) =  -1415.70569227     A.U. after   16 cycles
 SCF Done:  E(RwB97XD) =  -1415.70602436     A.U. after   16 cycles
 SCF Done:  E(RwB97XD) =  -1415.70611311     A.U. after   14 cycles
 SCF Done:  E(RwB97XD) =  -1415.70611906     A.U. after   14 cycles
 SCF Done:  E(RwB97XD) =  -1415.70614112     A.U. after   13 cycles
 SCF Done:  E(RwB97XD) =  -1415.70614540     A.U. after   13 cycles
 SCF Done:  E(RwB97XD) =  -1415.70616694     A.U. after   13 cycles
 SCF Done:  E(RwB97XD) =  -1415.70618482     A.U. after   14 cycles
 SCF Done:  E(RwB97XD) =  -1415.70619416     A.U. after   13 cycles
 SCF Done:  E(RwB97XD) =  -1415.70620939     A.U. after   14 cycles
 SCF Done:  E(RwB97XD) =  -1415.70621079     A.U. after   12 cycles
 SCF Done:  E(RwB97XD) =  -1415.70621089     A.U. after   11 cycles
 SCF Done:  E(RwB97XD) =  -1415.70621212     A.U. after   12 cycles
 SCF Done:  E(RwB97XD) =  -1415.70621219     A.U. after   10 cycles
 SCF Done:  E(RwB97XD) =  -1415.70621224     A.U. after   10 cycles
 Optimization completed.
    -- Stationary point found.
 Normal termination of Gaussian 16 at Wed Mar 14 09:46:22 2018.

 ----------------------------------------------------------------------
 #N Geom=AllCheck Guess=TCheck SCRF=Check GenChk RwB97XD/6-31+G(d) Freq
 ----------------------------------------------------------------------

 Structure from the checkpoint file:  "Int3_sdcx.chk"
 ------------------------
 Int1_Pyrax_wB97XD/631g+d
 ------------------------
 Charge =  2 Multiplicity = 1

                         Standard orientation:
 ---------------------------------------------------------------------
 Center     Atomic      Atomic             Coordinates (Angstroms)
 Number     Number       Type             X           Y           Z
 ---------------------------------------------------------------------
      1          6           0       -1.235041    2.941397   -2.168301
      2          6           0       -1.050299    1.705480   -1.554484
      3          6           0       -0.252689    1.600986   -0.409308
      4          6           0        0.315836    2.754451    0.138685
      5          6           0        0.097488    3.996167   -0.454751
      6          1           0       -1.836660    3.007760   -3.070385
      7          1           0       -1.541578    0.830972   -1.971649
      8          1           0        0.927048    2.695588    1.035795
      9          1           0        0.530849    4.887816   -0.010689
     10         15           0       -0.000160   -0.005888    0.460551
     11          6           0       -1.951457   -0.289239    0.456228
     12          6           0       -2.772189    0.718772    0.989758
     13          6           0       -2.585871   -1.418044   -0.071732
     14          6           0       -4.142012    0.587242    0.987753
     15          1           0       -2.347419    1.623777    1.413471
     16          6           0       -3.964694   -1.514930   -0.064677
     17          1           0       -2.026888   -2.243374   -0.497026
     18          1           0       -4.825114    1.326662    1.386792
     19          1           0       -4.511765   -2.360940   -0.462161
     20          6           0        1.942771    0.311221    0.583751
     21          6           0        2.714062    0.138168    1.739773
     22          6           0        2.629148    0.628917   -0.600606
     23          6           0        4.087318    0.282877    1.695464
     24          1           0        2.255844   -0.110315    2.688143
     25          6           0        3.998337    0.763506   -0.609826
     26          1           0        2.101796    0.776172   -1.537903
     27          1           0        4.733867    0.165225    2.556411
     28          1           0        4.577960    1.007548   -1.491396
     29          6           0       -0.666171    4.089296   -1.616674
     30          1           0       -0.824285    5.055162   -2.088511
     31          8           0        0.044290   -0.132075    2.091978
     32          6           0        0.362609   -1.503235   -0.533554
     33          6           0        0.331160   -1.527392   -1.930202
     34          6           0        0.704832   -2.661010    0.173771
     35          6           0        0.636939   -2.704049   -2.611552
     36          1           0        0.077826   -0.637498   -2.497804
     37          6           0        1.000396   -3.836818   -0.512684
     38          1           0        0.744295   -2.653968    1.260665
     39          1           0        0.615262   -2.714210   -3.697822
     40          1           0        1.259898   -4.732973    0.044057
     41          6           0       -0.863165   -0.807841    2.973073
     42          1           0       -0.267401   -1.069110    3.850351
     43          1           0       -1.678923   -0.144746    3.270308
     44          1           0       -1.263183   -1.720855    2.525691
     45          6           0        0.966745   -3.860564   -1.906191
     46          1           0        1.200267   -4.776773   -2.441427
     47          7           0        4.686450    0.587978    0.534068
     48          7           0       -4.695922   -0.520181    0.459134
     49          1           0        5.698446    0.694075    0.517158
     50          1           0       -5.710090   -0.607804    0.459145
 ---------------------------------------------------------------------

 SCF Done:  E(RwB97XD) =  -1415.70621224     A.U. after    2 cycles

 The electronic state is 1-A.
 Alpha  occ. eigenvalues --  -77.37964 -19.31612 -14.57428 -14.57103 -10.39253
 Alpha  occ. eigenvalues --  -10.39033 -10.38919 -10.38787 -10.35320 -10.34959
 Alpha  occ. eigenvalues --  -10.34755 -10.34331 -10.34230 -10.33998 -10.33761
 Alpha  occ. eigenvalues --  -10.33223 -10.33219 -10.32523 -10.32486 -10.32396
 Alpha  occ. eigenvalues --  -10.32341 -10.32026 -10.31877 -10.31842 -10.31841
 Alpha  occ. eigenvalues --  -10.31820 -10.31793  -6.78766  -4.93798  -4.93590
 Alpha  occ. eigenvalues --   -4.93488  -1.16233  -1.14105  -1.13801  -0.98460
 Alpha  occ. eigenvalues --   -0.97588  -0.95242  -0.94974  -0.91739  -0.91418
 Alpha  occ. eigenvalues --   -0.89027  -0.86585  -0.86453  -0.86151  -0.83082
 Alpha  occ. eigenvalues --   -0.78708  -0.77974  -0.77818  -0.77161  -0.73741
 Alpha  occ. eigenvalues --   -0.71844  -0.71561  -0.70853  -0.70491  -0.70220
 Alpha  occ. eigenvalues --   -0.67932  -0.63176  -0.62761  -0.61843  -0.61475
 Alpha  occ. eigenvalues --   -0.61157  -0.58991  -0.58534  -0.58430  -0.56723
 Alpha  occ. eigenvalues --   -0.56209  -0.55957  -0.55675  -0.55450  -0.55304
 Alpha  occ. eigenvalues --   -0.55251  -0.55116  -0.54641  -0.53568  -0.53221
 Alpha  occ. eigenvalues --   -0.52207  -0.51666  -0.51060  -0.48529  -0.48125
 Alpha  occ. eigenvalues --   -0.47780  -0.47549  -0.47014  -0.45802  -0.44467
 Alpha  occ. eigenvalues --   -0.44078  -0.43462  -0.41669  -0.41022  -0.40919
 Alpha  occ. eigenvalues --   -0.39625  -0.38199  -0.37960  -0.35458  -0.34663
 Alpha  occ. eigenvalues --   -0.34552  -0.34035  -0.33995
 Alpha virt. eigenvalues --   -0.02153  -0.01912   0.01584   0.01932   0.02263
 Alpha virt. eigenvalues --    0.03830   0.04668   0.04785   0.04983   0.05390
 Alpha virt. eigenvalues --    0.06155   0.06723   0.06967   0.08237   0.08389

 Mulliken charges:
               1
     1  C   -0.664751
     2  C   -0.006711
     3  C    0.041717
     4  C    0.391364
     5  C   -0.616073
     6  H    0.255342
     7  H    0.272349
     8  H    0.274811
     9  H    0.256287
    10  P   -0.446775
    11  C   -1.088856
    12  C    0.993200
    13  C    1.207265
    14  C   -0.782367
    15  H    0.304220
    16  C   -0.930403
    17  H    0.304973
    18  H    0.311892
    19  H    0.311037
    20  C   -0.608774
    21  C    1.271079
    22  C    0.548316
    23  C   -0.844501
    24  H    0.295763
    25  C   -0.739989
    26  H    0.303067
    27  H    0.309316
    28  H    0.308963
    29  C   -0.209433
    30  H    0.255560
    31  O   -0.395596
    32  C   -0.054398
    33  C   -0.125627
    34  C    0.579545
    35  C   -0.632003
    36  H    0.269533
    37  C   -0.643984
    38  H    0.267751
    39  H    0.254549
    40  H    0.255310
    41  C   -0.328508
    42  H    0.251930
    43  H    0.256479
    44  H    0.270249
    45  C   -0.218676
    46  H    0.254586
    47  N   -0.346284
    48  N   -0.321996
    49  H    0.564254
    50  H    0.564998
 Sum of Mulliken charges =   2.00000

 Dipole moment (field-independent basis, Debye):
    X=             -1.8858    Y=             -0.6377    Z=              3.6535  Tot=              4.1606
 Quadrupole moment (field-independent basis, Debye-Ang):
   XX=             11.7226   YY=           -124.8913   ZZ=           -127.8493
   XY=             16.7549   XZ=              1.9277   YZ=             -1.0646

  Exact polarizability: 407.956   1.620 426.934  25.516   3.695 397.973
 Approx polarizability: 310.635   1.282 325.208  21.071   3.796 321.098

                      1                      2                      3
                      A                      A                      A
 Frequencies --     36.8100                43.6421                47.3334
 Red. masses --      4.8468                 5.0715                 4.4961
 Frc consts  --      0.0039                 0.0057                 0.0059
 IR Inten    --      8.0547                 6.6393                 5.8276

                      4                      5                      6
                      A                      A                      A
 Frequencies --     55.5244                65.5587                72.0370
 Red. masses --      4.6651                 4.5808                 4.7666
 Frc consts  --      0.0085                 0.0116                 0.0146
 IR Inten    --      1.9750                 2.5045                 8.6951

                      7                      8                      9
                      A                      A                      A
 Frequencies --     75.1737                81.6036               102.8586
 Red. masses --      3.6708                 4.0735                 3.8329
 Frc consts  --      0.0122                 0.0160                 0.0239
 IR Inten    --      0.4844                 6.4727                 4.1477

                     10                     11                     12
                      A                      A                      A
 Frequencies --    114.3429               149.2275               174.4478
 Red. masses --      3.8643                 3.6473                 4.2662
 Frc consts  --      0.0298                 0.0479                 0.0765
 IR Inten    --      1.1896                 7.0464                 2.4825

                     13                     14                     15
                      A                      A                      A
 Frequencies --    184.4040               198.8484               225.1322
 Red. masses --      5.3793                 5.0719                 3.0141
 Frc consts  --      0.1078                 0.1182                 0.0900
 IR Inten    --      0.5567                 0.4698                 1.9356

                     16                     17                     18
                      A                      A                      A
 Frequencies --    237.4712               241.9690               253.8338
 Red. masses --      1.5178                 4.6873                 4.5098
 Frc consts  --      0.0504                 0.1617                 0.1712
 IR Inten    --      0.2803                 2.5560                 2.1576

                     19                     20                     21
                      A                      A                      A
 Frequencies --    262.0418               271.6799               281.7280
 Red. masses --      5.1030                 4.1849                 3.6430
 Frc consts  --      0.2065                 0.1820                 0.1704
 IR Inten    --      1.3388                 7.4685                 2.8562

                     22                     23                     24
                      A                      A                      A
 Frequencies --    293.1513               354.8284               399.4666
 Red. masses --      4.5158                 5.6426                 5.3223
 Frc consts  --      0.2287                 0.4186                 0.5004
 IR Inten    --      1.7416                35.3138                16.3172

                     25                     26                     27
                      A                      A                      A
 Frequencies --    405.9648               410.8437               414.0600
 Red. masses --      2.8540                 2.9327                 2.8256
 Frc consts  --      0.2771                 0.2917                 0.2854
 IR Inten    --      0.7896                 1.5899                 0.2612

                     28                     29                     30
                      A                      A                      A
 Frequencies --    427.0558               453.7964               469.0151
 Red. masses --      3.0316                 5.1432                 5.0971
 Frc consts  --      0.3258                 0.6240                 0.6606
 IR Inten    --      2.1884                89.5894                31.3574

                     31                     32                     33
                      A                      A                      A
 Frequencies --    528.4108               539.0697               558.2523
 Red. masses --      4.1878                 3.9382                 4.4424
 Frc consts  --      0.6889                 0.6743                 0.8157
 IR Inten    --     27.0029                94.9050               320.6114

                     34                     35                     36
                      A                      A                      A
 Frequencies --    571.0799               631.8130               634.5383
 Red. masses --      4.7111                 6.4239                 6.4189
 Frc consts  --      0.9053                 1.5109                 1.5228
 IR Inten    --    268.1053                 0.6221                 1.0707

                     37                     38                     39
                      A                      A                      A
 Frequencies --    663.0981               663.3036               670.4967
 Red. masses --      6.4639                 6.5029                 6.8942
 Frc consts  --      1.6746                 1.6857                 1.8261
 IR Inten    --      1.3963                 0.9527                27.5115

                     40                     41                     42
                      A                      A                      A
 Frequencies --    681.7035               691.7401               720.1423
 Red. masses --      6.7699                 6.8835                 1.8845
 Frc consts  --      1.8536                 1.9406                 0.5758
 IR Inten    --     12.3497               137.1485               167.4781

                     43                     44                     45
                      A                      A                      A
 Frequencies --    729.3470               731.4089               744.5181
 Red. masses --      3.9042                 2.1534                 2.1740
 Frc consts  --      1.2236                 0.6787                 0.7100
 IR Inten    --     72.1321                37.5014               192.9504

                     46                     47                     48
                      A                      A                      A
 Frequencies --    757.1889               760.5452               767.9657
 Red. masses --      2.4725                 2.0843                 3.3811
 Frc consts  --      0.8352                 0.7103                 1.1749
 IR Inten    --    100.2947                72.4486               118.1210

                     49                     50                     51
                      A                      A                      A
 Frequencies --    769.7557               781.6980               782.9768
 Red. masses --      1.2603                 2.3118                 1.9254
 Frc consts  --      0.4400                 0.8323                 0.6955
 IR Inten    --    124.3503                29.8372                11.9114

                     52                     53                     54
                      A                      A                      A
 Frequencies --    881.8360               892.2016               896.2947
 Red. masses --      1.2479                 1.2448                 1.2566
 Frc consts  --      0.5718                 0.5838                 0.5948
 IR Inten    --      0.1248                 0.5597                 0.8189

                     55                     56                     57
                      A                      A                      A
 Frequencies --    896.6870               911.4923               917.2611
 Red. masses --      1.2516                 1.3553                 1.3441
 Frc consts  --      0.5929                 0.6634                 0.6663
 IR Inten    --      0.5492                 1.3113                 2.3223

                     58                     59                     60
                      A                      A                      A
 Frequencies --    961.2115               980.2627              1017.6788
 Red. masses --      1.3553                 1.3276                 1.4214
 Frc consts  --      0.7378                 0.7516                 0.8674
 IR Inten    --      0.6079                 1.5044                 0.7360

                     61                     62                     63
                      A                      A                      A
 Frequencies --   1020.6828              1021.9401              1022.8549
 Red. masses --      4.8500                 1.3723                 4.1441
 Frc consts  --      2.9770                 0.8444                 2.5545
 IR Inten    --      4.6228                 1.5127                 2.9027

                     64                     65                     66
                      A                      A                      A
 Frequencies --   1025.8523              1027.4140              1028.9255
 Red. masses --      1.3150                 1.3677                 1.3549
 Frc consts  --      0.8154                 0.8506                 0.8451
 IR Inten    --      3.7217                 0.6534                 1.0612

                     67                     68                     69
                      A                      A                      A
 Frequencies --   1031.8438              1035.1559              1037.3979
 Red. masses --      1.4554                 6.2054                 6.0229
 Frc consts  --      0.9130                 3.9177                 3.8190
 IR Inten    --      3.5589                 2.4251                 2.9048

                     70                     71                     72
                      A                      A                      A
 Frequencies --   1039.9536              1047.3802              1062.6957
 Red. masses --      1.3171                 1.3414                 2.9242
 Frc consts  --      0.8393                 0.8670                 1.9457
 IR Inten    --      0.0734                 3.1731                 4.5664

                     73                     74                     75
                      A                      A                      A
 Frequencies --   1064.6852              1089.1165              1097.3864
 Red. masses --      2.9094                 6.4174                 5.3102
 Frc consts  --      1.9431                 4.4850                 3.7677
 IR Inten    --      9.8436               310.1801                48.2622

                     76                     77                     78
                      A                      A                      A
 Frequencies --   1099.6215              1117.4339              1122.1965
 Red. masses --      3.5050                 2.2816                 1.6468
 Frc consts  --      2.4970                 1.6785                 1.2219
 IR Inten    --     77.2525                35.5108                 0.7432

                     79                     80                     81
                      A                      A                      A
 Frequencies --   1125.9922              1133.5228              1135.0730
 Red. masses --      1.9156                 2.6117                 1.6731
 Frc consts  --      1.4309                 1.9771                 1.2700
 IR Inten    --     74.4356               124.2614                 3.4803

                     82                     83                     84
                      A                      A                      A
 Frequencies --   1143.5715              1146.9784              1156.4654
 Red. masses --      1.6563                 2.8333                 1.7484
 Frc consts  --      1.2762                 2.1961                 1.3777
 IR Inten    --      4.9680                76.8640                13.2017

                     85                     86                     87
                      A                      A                      A
 Frequencies --   1189.8277              1191.5879              1195.0874
 Red. masses --      1.2510                 1.1000                 1.1077
 Frc consts  --      1.0434                 0.9202                 0.9322
 IR Inten    --      3.0085                 0.3174                 0.1318

                     88                     89                     90
                      A                      A                      A
 Frequencies --   1217.4916              1225.7987              1238.9429
 Red. masses --      1.3333                 1.1388                 1.1562
 Frc consts  --      1.1644                 1.0082                 1.0457
 IR Inten    --     30.2837                 4.2270                 0.1512

                     91                     92                     93
                      A                      A                      A
 Frequencies --   1244.0556              1256.8491              1291.5666
 Red. masses --      1.1852                 1.1810                 1.4423
 Frc consts  --      1.0807                 1.0992                 1.4175
 IR Inten    --      2.8772                 2.8738                19.3932

                     94                     95                     96
                      A                      A                      A
 Frequencies --   1297.0480              1327.7341              1336.6216
 Red. masses --      1.5927                 3.9021                 3.1998
 Frc consts  --      1.5787                 4.0529                 3.3681
 IR Inten    --     14.3165                 3.0038                 8.5401

                     97                     98                     99
                      A                      A                      A
 Frequencies --   1343.0782              1351.7407              1376.6200
 Red. masses --      1.8513                 1.7743                 1.4977
 Frc consts  --      1.9675                 1.9102                 1.6722
 IR Inten    --      3.4794                 3.2167                 3.3995

                    100                    101                    102
                      A                      A                      A
 Frequencies --   1388.4848              1398.2638              1413.4673
 Red. masses --      1.3637                 2.5010                 1.8582
 Frc consts  --      1.5490                 2.8810                 2.1873
 IR Inten    --      5.9698                22.9729                19.0689

                    103                    104                    105
                      A                      A                      A
 Frequencies --   1486.5687              1490.4011              1504.2968
 Red. masses --      2.1533                 2.1548                 1.1024
 Frc consts  --      2.8036                 2.8200                 1.4699
 IR Inten    --     22.2708                53.0562                 8.5316

                    106                    107                    108
                      A                      A                      A
 Frequencies --   1517.0801              1528.6114              1540.1199
 Red. masses --      1.0755                 1.0463                 2.0096
 Frc consts  --      1.4584                 1.4405                 2.8084
 IR Inten    --     17.1057                16.8321                36.2198

                    109                    110                    111
                      A                      A                      A
 Frequencies --   1542.0950              1545.9023              1547.9493
 Red. masses --      2.0421                 2.1342                 2.0017
 Frc consts  --      2.8613                 3.0050                 2.8259
 IR Inten    --     12.6385                43.4706                 1.8312

                    112                    113                    114
                      A                      A                      A
 Frequencies --   1551.0226              1558.9870              1656.5434
 Red. masses --      2.3041                 2.0581                 5.3808
 Frc consts  --      3.2658                 2.9471                 8.6996
 IR Inten    --     59.7191                64.8776                 2.1352

                    115                    116                    117
                      A                      A                      A
 Frequencies --   1659.9976              1669.9574              1672.5217
 Red. masses --      5.4025                 3.7887                 5.5666
 Frc consts  --      8.7711                 6.2251                 9.1746
 IR Inten    --      2.9693                75.7710                 3.4799

                    118                    119                    120
                      A                      A                      A
 Frequencies --   1675.0986              1679.0148              1705.1492
 Red. masses --      5.4476                 3.3712                 5.1221
 Frc consts  --      9.0061                 5.5994                 8.7746
 IR Inten    --      1.3560                64.9828               194.7613

                    121                    122                    123
                      A                      A                      A
 Frequencies --   1707.9878              3089.9301              3185.4623
 Red. masses --      5.1077                 1.0287                 1.1074
 Frc consts  --      8.7789                 5.7867                 6.6204
 IR Inten    --     76.9115                61.0039                28.6132

                    124                    125                    126
                      A                      A                      A
 Frequencies --   3188.5751              3209.6442              3215.5011
 Red. masses --      1.1092                 1.0891                 1.0871
 Frc consts  --      6.6444                 6.6108                 6.6223
 IR Inten    --     20.3165                 1.6188                 1.1348

                    127                    128                    129
                      A                      A                      A
 Frequencies --   3218.7704              3220.3048              3225.8776
 Red. masses --      1.0885                 1.0889                 1.0921
 Frc consts  --      6.6443                 6.6534                 6.6961
 IR Inten    --      0.4479                 0.2937                 3.8024

                    130                    131                    132
                      A                      A                      A
 Frequencies --   3228.3851              3232.7513              3238.6263
 Red. masses --      1.0931                 1.0957                 1.0924
 Frc consts  --      6.7125                 6.7465                 6.7505
 IR Inten    --     24.1030                24.2541                 3.8363

                    133                    134                    135
                      A                      A                      A
 Frequencies --   3238.9201              3241.1428              3245.3806
 Red. masses --      1.0970                 1.0993                 1.0916
 Frc consts  --      6.7807                 6.8040                 6.7743
 IR Inten    --     11.4235                22.1180                 1.4097

                    136                    137                    138
                      A                      A                      A
 Frequencies --   3249.0123              3268.7954              3280.4159
 Red. masses --      1.0941                 1.0908                 1.0910
 Frc consts  --      6.8045                 6.8671                 6.9174
 IR Inten    --     12.4154                 5.2021                 5.6948

                    139                    140                    141
                      A                      A                      A
 Frequencies --   3288.2485              3289.7498              3291.3204
 Red. masses --      1.0978                 1.0980                 1.0989
 Frc consts  --      6.9936                 7.0011                 7.0139
 IR Inten    --      3.1783                 3.8685                 1.1815

                    142                    143                    144
                      A                      A                      A
 Frequencies --   3291.8349              3597.9555              3600.7770
 Red. masses --      1.0986                 1.0817                 1.0816
 Frc consts  --      7.0139                 8.2500                 8.2622
 IR Inten    --      1.4246               347.1239               320.7240

 - Thermochemistry -
 -------------------
 Temperature   298.150 Kelvin.  Pressure   1.00000 Atm.
 Atom     1 has atomic number  6 and mass  12.00000

 Molecular mass:   374.15480 amu.
 Principal axes and moments of inertia in atomic units:
                           1         2         3
     Eigenvalues --  7782.53739********************
           X            1.00000   0.00096  -0.00088
           Y           -0.00096   0.99999  -0.00515
           Z            0.00088   0.00515   0.99999
 This molecule is an asymmetric top.
 Rotational symmetry number  1.
 Warning -- assumption of classical behavior for rotation
           may cause significant error
 Rotational temperatures (Kelvin)      0.01113     0.00863     0.00675
 Rotational constants (GHZ):           0.23190     0.17975     0.14074
 Zero-point vibrational energy    1100761.3 (Joules/Mol)
                                  263.08827 (Kcal/Mol)
 Warning -- explicit consideration of  34 degrees of freedom as
           vibrations may cause significant error
 Vibrational temperatures:     52.96    62.79    68.10    79.89    94.32
          (Kelvin)            103.65   108.16   117.41   147.99   164.51
                              214.71   250.99   265.32   286.10   323.91
                              341.67   348.14   365.21   377.02   390.89
                              405.34   421.78   510.52   574.74   584.09
                              591.11   595.74   614.44   652.91   674.81
                              760.27   775.60   803.20   821.66   909.04
                              912.96   954.05   954.35   964.70   980.82
                              995.26  1036.12  1049.37  1052.33  1071.20
                             1089.43  1094.25  1104.93  1107.51  1124.69
                             1126.53  1268.77  1283.68  1289.57  1290.13
                             1311.43  1319.73  1382.97  1410.38  1464.21
                             1468.53  1470.34  1471.66  1475.97  1478.22
                             1480.39  1484.59  1489.36  1492.58  1496.26
                             1506.95  1528.98  1531.84  1567.00  1578.89
                             1582.11  1607.74  1614.59  1620.05  1630.89
                             1633.12  1645.34  1650.25  1663.90  1711.90
                             1714.43  1719.46  1751.70  1763.65  1782.56
                             1789.92  1808.33  1858.28  1866.16  1910.31
                             1923.10  1932.39  1944.85  1980.65  1997.72
                             2011.79  2033.66  2138.84  2144.35  2164.35
                             2182.74  2199.33  2215.89  2218.73  2224.21
                             2227.15  2231.58  2243.03  2383.40  2388.37
                             2402.70  2406.39  2410.09  2415.73  2453.33
                             2457.41  4445.72  4583.17  4587.65  4617.96
                             4626.39  4631.09  4633.30  4641.32  4644.93
                             4651.21  4659.66  4660.08  4663.28  4669.38
                             4674.60  4703.07  4719.79  4731.06  4733.22
                             4735.48  4736.22  5176.66  5180.71

 Zero-point correction=                           0.419258 (Hartree/Particle)
 Thermal correction to Energy=                    0.442589
 Thermal correction to Enthalpy=                  0.443533
 Thermal correction to Gibbs Free Energy=         0.366242
 Sum of electronic and zero-point Energies=          -1415.286954
 Sum of electronic and thermal Energies=             -1415.263623
 Sum of electronic and thermal Enthalpies=           -1415.262679
 Sum of electronic and thermal Free Energies=        -1415.339970

                     E (Thermal)             CV                S
                      KCal/Mol        Cal/Mol-Kelvin    Cal/Mol-Kelvin
 Total                  277.729             92.060            162.674
 Electronic               0.000              0.000              0.000
 Translational            0.889              2.981             43.651
 Rotational               0.889              2.981             35.259
 Vibrational            275.952             86.098             83.764
 Vibration     1          0.594              1.982              5.424
 Vibration     2          0.595              1.980              5.087
 Vibration     3          0.595              1.979              4.926
 Vibration     4          0.596              1.975              4.610
 Vibration     5          0.597              1.971              4.282
 Vibration     6          0.598              1.967              4.097
 Vibration     7          0.599              1.966              4.013
 Vibration     8          0.600              1.962              3.852
 Vibration     9          0.605              1.947              3.399
 Vibration    10          0.607              1.938              3.194
 Vibration    11          0.618              1.904              2.682
 Vibration    12          0.627              1.874              2.387
 Vibration    13          0.631              1.861              2.283
 Vibration    14          0.637              1.841              2.144
 Vibration    15          0.650              1.803              1.917
 Vibration    16          0.656              1.783              1.822
 Vibration    17          0.658              1.776              1.788
 Vibration    18          0.665              1.756              1.704
 Vibration    19          0.669              1.742              1.648
 Vibration    20          0.675              1.725              1.585
 Vibration    21          0.681              1.707              1.523
 Vibration    22          0.688              1.686              1.456
 Vibration    23          0.731              1.565              1.145
 Vibration    24          0.766              1.471              0.965
 Vibration    25          0.771              1.457              0.941
 Vibration    26          0.775              1.447              0.924
 Vibration    27          0.778              1.440              0.912
 Vibration    28          0.789              1.411              0.868
 Vibration    29          0.812              1.352              0.784
 Vibration    30          0.826              1.319              0.740
 Vibration    31          0.883              1.187              0.591
 Vibration    32          0.894              1.164              0.567
 Vibration    33          0.914              1.122              0.527
 Vibration    34          0.927              1.094              0.502

 Optimization completed.
    -- Stationary point found.
 Normal termination of Gaussian 16 at Wed Mar 14 11:06:10 2018.
