 Gaussian 16, Revision A.03,
 Gaussian 16:  ES64L-G16RevA.03 25-Dec-2016

 ----------------------------------------------------------------------
 # wb97xd/6-31+g(d) opt=(maxcycles=200) scrf=(solvent=ethanol,smd) freq
 =noraman geom=connectivity
 ----------------------------------------------------------------------

 -------------------
 Title Card Required
 -------------------
 Symbolic Z-matrix:
 Charge =  2 Multiplicity = 1

 SCF Done:  E(RwB97XD) =  -1415.69105498     A.U. after   16 cycles
 SCF Done:  E(RwB97XD) =  -1415.69677040     A.U. after   15 cycles
 SCF Done:  E(RwB97XD) =  -1415.69673789     A.U. after   15 cycles
 SCF Done:  E(RwB97XD) =  -1415.69714912     A.U. after   16 cycles
 SCF Done:  E(RwB97XD) =  -1415.69791643     A.U. after   14 cycles
 SCF Done:  E(RwB97XD) =  -1415.69801192     A.U. after   14 cycles
 SCF Done:  E(RwB97XD) =  -1415.69805347     A.U. after   13 cycles
 SCF Done:  E(RwB97XD) =  -1415.69807460     A.U. after   12 cycles
 SCF Done:  E(RwB97XD) =  -1415.69808793     A.U. after   13 cycles
 SCF Done:  E(RwB97XD) =  -1415.69809507     A.U. after   12 cycles
 SCF Done:  E(RwB97XD) =  -1415.69810330     A.U. after   12 cycles
 SCF Done:  E(RwB97XD) =  -1415.69810191     A.U. after   13 cycles
 SCF Done:  E(RwB97XD) =  -1415.69809957     A.U. after   12 cycles
 SCF Done:  E(RwB97XD) =  -1415.69810383     A.U. after   13 cycles
 SCF Done:  E(RwB97XD) =  -1415.69810237     A.U. after   13 cycles
 SCF Done:  E(RwB97XD) =  -1415.69810635     A.U. after   12 cycles
 SCF Done:  E(RwB97XD) =  -1415.69810561     A.U. after   11 cycles
 SCF Done:  E(RwB97XD) =  -1415.69810556     A.U. after   10 cycles
 SCF Done:  E(RwB97XD) =  -1415.69810563     A.U. after   10 cycles
 Optimization completed.
    -- Stationary point found.
 Normal termination of Gaussian 16 at Thu Mar 15 14:15:28 2018.

 ----------------------------------------------------------------------
 #N Geom=AllCheck Guess=TCheck SCRF=Check GenChk RwB97XD/6-31+G(d) Freq
 ----------------------------------------------------------------------

 Structure from the checkpoint file:  "Int3_SNdxklof.chk"
 -------------------
 Title Card Required
 -------------------
 Charge =  2 Multiplicity = 1

                         Standard orientation:
 ---------------------------------------------------------------------
 Center     Atomic      Atomic             Coordinates (Angstroms)
 Number     Number       Type             X           Y           Z
 ---------------------------------------------------------------------
      1          6           0        1.067258    3.045096   -2.221882
      2          6           0        0.976690    1.799695   -1.605273
      3          6           0        0.257146    1.655074   -0.415148
      4          6           0       -0.330012    2.779002    0.173510
      5          6           0       -0.203432    4.031758   -0.422797
      6          1           0        1.610507    3.142817   -3.157586
      7          1           0        1.482872    0.949178   -2.052294
      8          1           0       -0.881940    2.688434    1.105791
      9          1           0       -0.646915    4.901588    0.053473
     10         15           0        0.123700    0.041222    0.469380
     11          6           0       -1.862078    0.284404    0.603507
     12          6           0       -2.622874    0.117531    1.767968
     13          6           0       -2.564187    0.567521   -0.580171
     14          6           0       -3.998736    0.237255    1.731834
     15          1           0       -2.153596   -0.101626    2.718201
     16          6           0       -3.936112    0.677910   -0.582321
     17          1           0       -2.045771    0.715716   -1.522967
     18          1           0       -4.636864    0.125728    2.599911
     19          1           0       -4.526231    0.899064   -1.463041
     20          6           0        2.006725   -0.292078    0.391250
     21          6           0        2.574944   -1.528729    0.066081
     22          6           0        2.880392    0.756198    0.723167
     23          6           0        3.960461   -1.710969    0.057977
     24          1           0        1.954606   -2.383968   -0.183558
     25          6           0        4.260623    0.581067    0.722836
     26          1           0        2.481481    1.732117    0.991246
     27          6           0        4.808252   -0.657465    0.384890
     28          1           0        4.371207   -2.682629   -0.204231
     29          1           0        4.909471    1.412952    0.984373
     30          1           0        5.885884   -0.797684    0.378081
     31          6           0        0.482630    4.163796   -1.628922
     32          1           0        0.569800    5.138019   -2.102023
     33          8           0        0.054953   -0.026045    2.104002
     34          6           0       -0.315247   -1.489505   -0.502990
     35          6           0       -0.746313   -2.595760    0.238646
     36          6           0       -0.255303   -1.585105   -1.895239
     37          6           0       -1.097127   -3.756851   -0.415629
     38          1           0       -0.811902   -2.565644    1.321693
     39          6           0       -0.632262   -2.763242   -2.507309
     40          1           0        0.076705   -0.762759   -2.517270
     41          1           0       -1.431083   -4.655809    0.087101
     42          1           0       -0.620720   -2.914896   -3.579194
     43          7           0       -1.033337   -3.802370   -1.757018
     44          6           0        1.066355   -0.417172    3.042013
     45          1           0        0.529858   -0.578577    3.979719
     46          1           0        1.562871   -1.341837    2.741687
     47          1           0        1.802204    0.378892    3.173102
     48          7           0       -4.612084    0.510577    0.569433
     49          1           0       -5.625586    0.602464    0.559682
     50          1           0       -1.300774   -4.665549   -2.227501
 ---------------------------------------------------------------------

 SCF Done:  E(RwB97XD) =  -1415.69810563     A.U. after    2 cycles

 The electronic state is 1-A.
 Alpha  occ. eigenvalues --  -77.38177 -19.31482 -14.58312 -14.57231 -10.40172
 Alpha  occ. eigenvalues --  -10.40144 -10.39013 -10.38947 -10.37657 -10.35709
 Alpha  occ. eigenvalues --  -10.35689 -10.34902 -10.34704 -10.34125 -10.33838
 Alpha  occ. eigenvalues --  -10.33002 -10.32341 -10.32334 -10.31905 -10.31703
 Alpha  occ. eigenvalues --  -10.31694 -10.31350 -10.31187 -10.31171 -10.31084
 Alpha  occ. eigenvalues --  -10.31035 -10.31017  -6.78918  -4.93986  -4.93798
 Alpha  occ. eigenvalues --   -4.93564  -1.15988  -1.15027  -1.13924  -0.98382
 Alpha  occ. eigenvalues --   -0.97216  -0.96368  -0.94790  -0.92864  -0.91522
 Alpha  occ. eigenvalues --   -0.88671  -0.86282  -0.85449  -0.85075  -0.83602
 Alpha  occ. eigenvalues --   -0.79780  -0.79276  -0.77613  -0.76956  -0.74024
 Alpha  occ. eigenvalues --   -0.71574  -0.71254  -0.70534  -0.70358  -0.69976
 Alpha  occ. eigenvalues --   -0.67834  -0.64022  -0.62345  -0.62221  -0.62094
 Alpha  occ. eigenvalues --   -0.60948  -0.59468  -0.58801  -0.58171  -0.57396
 Alpha  occ. eigenvalues --   -0.56937  -0.56718  -0.55971  -0.55529  -0.55252
 Alpha  occ. eigenvalues --   -0.54924  -0.54473  -0.53887  -0.53374  -0.53013
 Alpha  occ. eigenvalues --   -0.51882  -0.51078  -0.50037  -0.49876  -0.49467
 Alpha  occ. eigenvalues --   -0.47820  -0.47323  -0.46204  -0.44819  -0.44433
 Alpha  occ. eigenvalues --   -0.43804  -0.43562  -0.42760  -0.41146  -0.40145
 Alpha  occ. eigenvalues --   -0.39467  -0.39040  -0.37950  -0.35259  -0.34461
 Alpha  occ. eigenvalues --   -0.34310  -0.33767  -0.32822
 Alpha virt. eigenvalues --   -0.03930  -0.00871   0.00907   0.02205   0.02499
 Alpha virt. eigenvalues --    0.03506   0.04191   0.04663   0.05615   0.05744
 Alpha virt. eigenvalues --    0.06004   0.06429   0.07560   0.07898   0.08339

 Mulliken charges:
               1
     1  C   -0.644234
     2  C    0.091488
     3  C   -0.162166
     4  C    0.277518
     5  C   -0.514348
     6  H    0.254901
     7  H    0.268208
     8  H    0.271642
     9  H    0.254746
    10  P   -0.628037
    11  C   -0.677388
    12  C    1.328686
    13  C    0.557769
    14  C   -0.785348
    15  H    0.294309
    16  C   -0.645090
    17  H    0.301585
    18  H    0.309620
    19  H    0.309134
    20  C   -0.255017
    21  C    0.016775
    22  C    0.067873
    23  C   -0.231695
    24  H    0.253716
    25  C   -0.506885
    26  H    0.263762
    27  C   -0.181666
    28  H    0.245933
    29  H    0.247911
    30  H    0.248605
    31  C   -0.200311
    32  H    0.254685
    33  O   -0.395434
    34  C   -1.013199
    35  C    1.310826
    36  C    1.166484
    37  C   -0.945712
    38  H    0.314783
    39  C   -1.081914
    40  H    0.315185
    41  H    0.320547
    42  H    0.320060
    43  N   -0.293455
    44  C   -0.269593
    45  H    0.246521
    46  H    0.261373
    47  H    0.257544
    48  N   -0.342374
    49  H    0.565870
    50  H    0.575809
 Sum of Mulliken charges =   2.00000

 Dipole moment (field-independent basis, Debye):
    X=            -18.2445    Y=            -12.3373    Z=             -4.1327  Tot=             22.4087
 Quadrupole moment (field-independent basis, Debye-Ang):
   XX=            -64.2982   YY=            -78.0522   ZZ=           -115.2474
   XY=              8.1551   XZ=             -3.8631   YZ=             20.1687

  Exact polarizability: 418.105  -0.880 425.887 -25.614  -2.690 392.123
 Approx polarizability: 313.767   0.751 327.126 -20.904  -0.063 317.359

                      1                      2                      3
                      A                      A                      A
 Frequencies --     28.2287                35.1348                42.9778
 Red. masses --      4.0810                 4.7274                 4.9853
 Frc consts  --      0.0019                 0.0034                 0.0054
 IR Inten    --      0.4973                 6.2869                 0.5772

                      4                      5                      6
                      A                      A                      A
 Frequencies --     57.6445                59.0989                70.2513
 Red. masses --      5.1439                 4.1883                 4.6536
 Frc consts  --      0.0101                 0.0086                 0.0135
 IR Inten    --      3.0850                 0.7127                 1.9325

                      7                      8                      9
                      A                      A                      A
 Frequencies --     75.7405                84.9604                94.4298
 Red. masses --      3.7267                 3.9237                 3.9300
 Frc consts  --      0.0126                 0.0167                 0.0206
 IR Inten    --      9.5872                 0.3485                 1.1514

                     10                     11                     12
                      A                      A                      A
 Frequencies --     95.6863               140.2360               165.7387
 Red. masses --      4.1196                 3.6490                 4.5543
 Frc consts  --      0.0222                 0.0423                 0.0737
 IR Inten    --      0.8516                 6.1714                 4.1843

                     13                     14                     15
                      A                      A                      A
 Frequencies --    187.6993               194.5885               215.7871
 Red. masses --      4.9011                 5.0767                 2.0673
 Frc consts  --      0.1017                 0.1133                 0.0567
 IR Inten    --      2.1038                 1.6687                 0.7572

                     16                     17                     18
                      A                      A                      A
 Frequencies --    227.9461               233.2494               251.6055
 Red. masses --      1.9262                 3.8780                 4.9721
 Frc consts  --      0.0590                 0.1243                 0.1854
 IR Inten    --      0.1723                 7.4835                 5.9049

                     19                     20                     21
                      A                      A                      A
 Frequencies --    260.7017               265.8767               275.2626
 Red. masses --      4.8549                 4.7566                 4.1064
 Frc consts  --      0.1944                 0.1981                 0.1833
 IR Inten    --      4.2563                 5.8452                 2.2348

                     22                     23                     24
                      A                      A                      A
 Frequencies --    294.3488               357.8279               393.1627
 Red. masses --      4.3650                 5.5294                 5.6224
 Frc consts  --      0.2228                 0.4171                 0.5121
 IR Inten    --      1.5758                34.7796                30.8908

                     25                     26                     27
                      A                      A                      A
 Frequencies --    403.1354               410.3911               413.9042
 Red. masses --      2.8349                 2.8039                 2.8688
 Frc consts  --      0.2714                 0.2782                 0.2896
 IR Inten    --      2.1103                 0.2415                 0.9378

                     28                     29                     30
                      A                      A                      A
 Frequencies --    420.8368               455.4681               467.5664
 Red. masses --      2.9382                 5.0239                 5.1198
 Frc consts  --      0.3066                 0.6141                 0.6595
 IR Inten    --      0.7791                78.4712                34.0201

                     31                     32                     33
                      A                      A                      A
 Frequencies --    533.5109               540.2586               560.2429
 Red. masses --      4.0164                 3.9698                 4.4004
 Frc consts  --      0.6736                 0.6827                 0.8138
 IR Inten    --     44.1431                63.7696               268.5624

                     34                     35                     36
                      A                      A                      A
 Frequencies --    568.5335               633.4262               635.9059
 Red. masses --      4.8483                 6.4136                 6.3837
 Frc consts  --      0.9233                 1.5162                 1.5209
 IR Inten    --    321.5380                 0.9134                 0.4376

                     37                     38                     39
                      A                      A                      A
 Frequencies --    662.3298               664.1595               669.0667
 Red. masses --      6.4998                 6.5327                 6.8996
 Frc consts  --      1.6800                 1.6978                 1.8197
 IR Inten    --      3.1390                 0.9476                13.7925

                     40                     41                     42
                      A                      A                      A
 Frequencies --    680.4457               693.8558               720.9509
 Red. masses --      6.7978                 6.4201                 1.9831
 Frc consts  --      1.8544                 1.8211                 0.6073
 IR Inten    --     29.5973               157.6198                96.6698

                     43                     44                     45
                      A                      A                      A
 Frequencies --    724.8817               729.0866               749.1053
 Red. masses --      1.6568                 4.4866                 4.7656
 Frc consts  --      0.5129                 1.4051                 1.5756
 IR Inten    --    112.7190                81.1626                29.0897

                     46                     47                     48
                      A                      A                      A
 Frequencies --    756.1415               757.9289               766.7636
 Red. masses --      2.7306                 1.8984                 2.2584
 Frc consts  --      0.9199                 0.6425                 0.7823
 IR Inten    --    207.2806               152.5348                78.5698

                     49                     50                     51
                      A                      A                      A
 Frequencies --    773.8542               778.5664               782.3550
 Red. masses --      1.2531                 1.8669                 2.3337
 Frc consts  --      0.4421                 0.6667                 0.8416
 IR Inten    --    109.3463                29.8293                 0.8289

                     52                     53                     54
                      A                      A                      A
 Frequencies --    884.0385               885.5899               892.6439
 Red. masses --      1.2476                 1.2460                 1.2595
 Frc consts  --      0.5745                 0.5757                 0.5913
 IR Inten    --      0.3583                 0.4822                 0.2641

                     55                     56                     57
                      A                      A                      A
 Frequencies --    899.5009               913.8309               922.0613
 Red. masses --      1.2536                 1.3526                 1.3594
 Frc consts  --      0.5976                 0.6655                 0.6810
 IR Inten    --      1.6126                 4.7106                 1.9576

                     58                     59                     60
                      A                      A                      A
 Frequencies --    961.5986               971.8445              1017.8746
 Red. masses --      1.3527                 1.3331                 1.3994
 Frc consts  --      0.7370                 0.7418                 0.8542
 IR Inten    --      1.1142                 2.6364                 0.1658

                     61                     62                     63
                      A                      A                      A
 Frequencies --   1019.2848              1020.6040              1020.9873
 Red. masses --      1.6983                 1.6843                 3.7876
 Frc consts  --      1.0396                 1.0337                 2.3263
 IR Inten    --      0.9734                 2.2366                 0.8948

                     64                     65                     66
                      A                      A                      A
 Frequencies --   1023.2466              1026.3548              1028.2291
 Red. masses --      2.5818                 1.3340                 1.3937
 Frc consts  --      1.5927                 0.8279                 0.8681
 IR Inten    --      5.2596                 1.5014                 0.8854

                     67                     68                     69
                      A                      A                      A
 Frequencies --   1032.2707              1035.7868              1036.9365
 Red. masses --      1.4690                 4.2734                 1.3094
 Frc consts  --      0.9223                 2.7012                 0.8295
 IR Inten    --      2.4447                 2.0680                 0.0101

                     70                     71                     72
                      A                      A                      A
 Frequencies --   1038.7517              1042.0711              1060.7439
 Red. masses --      3.2622                 1.5880                 3.7298
 Frc consts  --      2.0739                 1.0160                 2.4726
 IR Inten    --      1.5202                 1.4877                 0.6272

                     73                     74                     75
                      A                      A                      A
 Frequencies --   1062.0086              1084.1670              1098.8189
 Red. masses --      3.0896                 7.2103                 4.2413
 Frc consts  --      2.0531                 4.9934                 3.0172
 IR Inten    --      6.6730               243.7530               157.2988

                     76                     77                     78
                      A                      A                      A
 Frequencies --   1104.4543              1113.5924              1119.7785
 Red. masses --      2.8119                 2.0347                 2.2108
 Frc consts  --      2.0209                 1.4866                 1.6333
 IR Inten    --     37.8802                40.3839                86.2259

                     79                     80                     81
                      A                      A                      A
 Frequencies --   1124.4471              1128.0783              1131.9244
 Red. masses --      1.6727                 1.7868                 2.5809
 Frc consts  --      1.2461                 1.3397                 1.9483
 IR Inten    --     12.9303                32.1694               104.4760

                     82                     83                     84
                      A                      A                      A
 Frequencies --   1143.7212              1145.5842              1152.6210
 Red. masses --      1.6626                 2.4270                 1.7927
 Frc consts  --      1.2814                 1.8766                 1.4032
 IR Inten    --     10.4144                35.9076                24.6192

                     85                     86                     87
                      A                      A                      A
 Frequencies --   1185.3627              1190.4324              1190.8894
 Red. masses --      1.2621                 1.1017                 1.0997
 Frc consts  --      1.0448                 0.9199                 0.9189
 IR Inten    --      4.5925                 0.0810                 0.1863

                     88                     89                     90
                      A                      A                      A
 Frequencies --   1209.7981              1225.4805              1238.8208
 Red. masses --      1.3161                 1.1406                 1.1527
 Frc consts  --      1.1349                 1.0093                 1.0422
 IR Inten    --     21.0215                 1.3059                 6.1052

                     91                     92                     93
                      A                      A                      A
 Frequencies --   1245.2903              1250.1953              1290.3724
 Red. masses --      1.1848                 1.1687                 1.4547
 Frc consts  --      1.0825                 1.0762                 1.4271
 IR Inten    --      2.2263                 6.2943                11.6939

                     94                     95                     96
                      A                      A                      A
 Frequencies --   1294.5269              1325.2248              1336.2229
 Red. masses --      1.7350                 4.5330                 2.5832
 Frc consts  --      1.7130                 4.6905                 2.7175
 IR Inten    --     28.8221                 9.8694                 8.0198

                     97                     98                     99
                      A                      A                      A
 Frequencies --   1344.0827              1347.9963              1375.3923
 Red. masses --      1.8993                 1.7265                 1.4858
 Frc consts  --      2.0216                 1.8484                 1.6560
 IR Inten    --      6.6420                 2.4004                 6.2946

                    100                    101                    102
                      A                      A                      A
 Frequencies --   1385.4426              1396.6013              1404.1574
 Red. masses --      1.3924                 2.3936                 1.9145
 Frc consts  --      1.5747                 2.7507                 2.2240
 IR Inten    --      1.9834                14.0461                37.4065

                    103                    104                    105
                      A                      A                      A
 Frequencies --   1482.5596              1487.3307              1499.4544
 Red. masses --      2.1424                 2.1684                 1.1292
 Frc consts  --      2.7744                 2.8262                 1.4958
 IR Inten    --     41.9901                30.1697                 3.3848

                    106                    107                    108
                      A                      A                      A
 Frequencies --   1510.8740              1522.0373              1539.1114
 Red. masses --      1.0472                 1.0491                 1.9914
 Frc consts  --      1.4084                 1.4319                 2.7794
 IR Inten    --     23.8920                21.8009                33.5563

                    109                    110                    111
                      A                      A                      A
 Frequencies --   1541.5614              1545.7890              1548.1520
 Red. masses --      2.0467                 1.9950                 2.0791
 Frc consts  --      2.8657                 2.8086                 2.9360
 IR Inten    --      7.3833                 8.6901                17.4940

                    112                    113                    114
                      A                      A                      A
 Frequencies --   1549.5357              1558.2756              1654.7195
 Red. masses --      2.2745                 2.2300                 5.2016
 Frc consts  --      3.2177                 3.1904                 8.3914
 IR Inten    --     62.3964                87.8155                 3.9611

                    115                    116                    117
                      A                      A                      A
 Frequencies --   1658.8098              1668.7566              1672.2818
 Red. masses --      5.4909                 3.8041                 5.6214
 Frc consts  --      8.9019                 6.2414                 9.2622
 IR Inten    --      4.6489                66.5208                 3.2536

                    118                    119                    120
                      A                      A                      A
 Frequencies --   1673.6974              1678.5837              1702.9702
 Red. masses --      5.5534                 3.4636                 5.0947
 Frc consts  --      9.1657                 5.7499                 8.7053
 IR Inten    --      1.0074                80.2818               143.3323

                    121                    122                    123
                      A                      A                      A
 Frequencies --   1713.2356              3092.1042              3186.4059
 Red. masses --      5.2399                 1.0287                 1.1073
 Frc consts  --      9.0617                 5.7950                 6.6237
 IR Inten    --    150.1378                64.1074                28.9160

                    124                    125                    126
                      A                      A                      A
 Frequencies --   3192.1242              3204.2400              3212.4290
 Red. masses --      1.1092                 1.0877                 1.0881
 Frc consts  --      6.6593                 6.5800                 6.6156
 IR Inten    --     18.8373                 5.4570                 1.9027

                    127                    128                    129
                      A                      A                      A
 Frequencies --   3212.4500              3219.0948              3221.7440
 Red. masses --      1.0881                 1.0889                 1.0929
 Frc consts  --      6.6162                 6.6480                 6.6836
 IR Inten    --      0.3867                 0.4518                25.5128

                    130                    131                    132
                      A                      A                      A
 Frequencies --   3227.5141              3232.7700              3237.2439
 Red. masses --      1.0929                 1.0963                 1.0960
 Frc consts  --      6.7075                 6.7506                 6.7672
 IR Inten    --     15.5391                36.2072                29.1915

                    133                    134                    135
                      A                      A                      A
 Frequencies --   3241.0291              3241.5691              3244.2699
 Red. masses --      1.0914                 1.0936                 1.0962
 Frc consts  --      6.7544                 6.7703                 6.7979
 IR Inten    --      2.4882                17.5365                12.1520

                    136                    137                    138
                      A                      A                      A
 Frequencies --   3247.9529              3278.8610              3279.8809
 Red. masses --      1.0937                 1.0909                 1.0913
 Frc consts  --      6.7976                 6.9101                 6.9166
 IR Inten    --      5.5734                 5.7980                 8.1847

                    139                    140                    141
                      A                      A                      A
 Frequencies --   3288.1497              3290.8171              3292.0736
 Red. masses --      1.0976                 1.0991                 1.0982
 Frc consts  --      6.9922                 7.0128                 7.0127
 IR Inten    --      3.1398                 0.8220                10.1291

                    142                    143                    144
                      A                      A                      A
 Frequencies --   3294.4527              3594.1852              3599.6914
 Red. masses --      1.0998                 1.0818                 1.0816
 Frc consts  --      7.0327                 8.2336                 8.2575
 IR Inten    --      3.3191               356.3387               338.4466

 - Thermochemistry -
 -------------------
 Temperature   298.150 Kelvin.  Pressure   1.00000 Atm.
 Atom     1 has atomic number  6 and mass  12.00000

 Molecular mass:   374.15480 amu.
 Principal axes and moments of inertia in atomic units:
                           1         2         3
     Eigenvalues --  7923.990639843.86308**********
           X            1.00000  -0.00081   0.00174
           Y            0.00082   0.99999  -0.00419
           Z           -0.00173   0.00419   0.99999
 This molecule is an asymmetric top.
 Rotational symmetry number  1.
 Warning -- assumption of classical behavior for rotation
           may cause significant error
 Rotational temperatures (Kelvin)      0.01093     0.00880     0.00675
 Rotational constants (GHZ):           0.22776     0.18334     0.14060
 Zero-point vibrational energy    1099244.8 (Joules/Mol)
                                  262.72581 (Kcal/Mol)
 Warning -- explicit consideration of  34 degrees of freedom as
           vibrations may cause significant error
 Vibrational temperatures:     40.61    50.55    61.84    82.94    85.03
          (Kelvin)            101.08   108.97   122.24   135.86   137.67
                              201.77   238.46   270.06   279.97   310.47
                              327.96   335.59   362.00   375.09   382.54
                              396.04   423.50   514.83   565.67   580.02
                              590.46   595.52   605.49   655.32   672.72
                              767.60   777.31   806.06   817.99   911.36
                              914.93   952.94   955.58   962.64   979.01
                              998.30  1037.29  1042.94  1048.99  1077.80
                             1087.92  1090.49  1103.20  1113.40  1120.18
                             1125.63  1271.93  1274.17  1284.32  1294.18
                             1314.80  1326.64  1383.53  1398.27  1464.49
                             1466.52  1468.42  1468.97  1472.22  1476.70
                             1479.39  1485.21  1490.27  1491.92  1494.53
                             1499.31  1526.17  1527.99  1559.87  1580.96
                             1589.06  1602.21  1611.11  1617.83  1623.05
                             1628.59  1645.56  1648.24  1658.36  1705.47
                             1712.77  1713.42  1740.63  1763.19  1782.39
                             1791.70  1798.75  1856.56  1862.54  1906.70
                             1922.53  1933.84  1939.47  1978.88  1993.34
                             2009.40  2020.27  2133.07  2139.94  2157.38
                             2173.81  2189.87  2214.44  2217.96  2224.05
                             2227.45  2229.44  2242.01  2380.77  2386.66
                             2400.97  2406.04  2408.08  2415.11  2450.19
                             2464.96  4448.85  4584.53  4592.75  4610.19
                             4621.97  4622.00  4631.56  4635.37  4643.67
                             4651.24  4657.67  4663.12  4663.89  4667.78
                             4673.08  4717.55  4719.02  4730.91  4734.75
                             4736.56  4739.98  5171.23  5179.15

 Zero-point correction=                           0.418680 (Hartree/Particle)
 Thermal correction to Energy=                    0.442222
 Thermal correction to Enthalpy=                  0.443167
 Thermal correction to Gibbs Free Energy=         0.364768
 Sum of electronic and zero-point Energies=          -1415.279425
 Sum of electronic and thermal Energies=             -1415.255883
 Sum of electronic and thermal Enthalpies=           -1415.254939
 Sum of electronic and thermal Free Energies=        -1415.333338

                     E (Thermal)             CV                S
                      KCal/Mol        Cal/Mol-Kelvin    Cal/Mol-Kelvin
 Total                  277.499             92.274            165.004
 Electronic               0.000              0.000              0.000
 Translational            0.889              2.981             43.651
 Rotational               0.889              2.981             35.258
 Vibrational            275.721             86.312             86.095
 Vibration     1          0.593              1.984              5.950
 Vibration     2          0.594              1.982              5.516
 Vibration     3          0.595              1.980              5.117
 Vibration     4          0.596              1.974              4.536
 Vibration     5          0.596              1.974              4.487
 Vibration     6          0.598              1.968              4.146
 Vibration     7          0.599              1.965              3.998
 Vibration     8          0.601              1.960              3.773
 Vibration     9          0.603              1.953              3.566
 Vibration    10          0.603              1.952              3.540
 Vibration    11          0.615              1.913              2.801
 Vibration    12          0.624              1.885              2.483
 Vibration    13          0.632              1.857              2.250
 Vibration    14          0.635              1.847              2.184
 Vibration    15          0.645              1.817              1.994
 Vibration    16          0.651              1.798              1.895
 Vibration    17          0.654              1.790              1.854
 Vibration    18          0.664              1.760              1.719
 Vibration    19          0.669              1.745              1.657
 Vibration    20          0.672              1.736              1.623
 Vibration    21          0.677              1.719              1.563
 Vibration    22          0.689              1.684              1.449
 Vibration    23          0.733              1.559              1.132
 Vibration    24          0.760              1.485              0.988
 Vibration    25          0.769              1.463              0.951
 Vibration    26          0.775              1.448              0.925
 Vibration    27          0.777              1.440              0.913
 Vibration    28          0.783              1.425              0.889
 Vibration    29          0.814              1.349              0.779
 Vibration    30          0.825              1.322              0.744
 Vibration    31          0.888              1.176              0.579
 Vibration    32          0.895              1.161              0.565
 Vibration    33          0.916              1.117              0.523
 Vibration    34          0.925              1.099              0.507

                           ! Non-Optimized Parameters !
 Normal termination of Gaussian 16 at Thu Mar 15 15:35:48 2018.
