 Gaussian 16, Revision A.03,
 Gaussian 16:  ES64L-G16RevA.03 25-Dec-2016

 ----------------------------------------------------------------------
 # opt=(calcfc,qst3,maxcycle=200) scrf=(solvent=ethanol,smd) freq=noram
 an wb97xd/6-31+g(d) geom=connectivity
 ----------------------------------------------------------------------

 -------------------
 Title Card Required
 -------------------
 Symbolic Z-matrix:
 Charge =  2 Multiplicity = 1

 -------------------
 Title Card Required
 -------------------
 Symbolic Z-matrix:
 Charge =  2 Multiplicity = 1

 -------------------
 Title Card Required
 -------------------
 Symbolic Z-matrix:
 Charge =  2 Multiplicity = 1

 SCF Done:  E(RwB97XD) =  -1415.68143758     A.U. after   18 cycles
 SCF Done:  E(RwB97XD) =  -1415.68200679     A.U. after   18 cycles
 SCF Done:  E(RwB97XD) =  -1415.67340123     A.U. after   19 cycles
 SCF Done:  E(RwB97XD) =  -1415.67479726     A.U. after   17 cycles
 SCF Done:  E(RwB97XD) =  -1415.67877753     A.U. after   17 cycles
 SCF Done:  E(RwB97XD) =  -1415.68071418     A.U. after   16 cycles
 SCF Done:  E(RwB97XD) =  -1415.68108097     A.U. after   16 cycles
 SCF Done:  E(RwB97XD) =  -1415.68114235     A.U. after   16 cycles
 SCF Done:  E(RwB97XD) =  -1415.68116870     A.U. after   15 cycles
 SCF Done:  E(RwB97XD) =  -1415.68116958     A.U. after   15 cycles
 SCF Done:  E(RwB97XD) =  -1415.68117086     A.U. after   13 cycles
 SCF Done:  E(RwB97XD) =  -1415.68117061     A.U. after   12 cycles
 SCF Done:  E(RwB97XD) =  -1415.68117045     A.U. after   11 cycles
 Optimization completed.
    -- Stationary point found.
 Normal termination of Gaussian 16 at Mon Mar 19 00:06:07 2018.

 ----------------------------------------------------------------------
 #N Geom=AllCheck Guess=TCheck SCRF=Check GenChk RwB97XD/6-31+G(d) Freq
 ----------------------------------------------------------------------

 Structure from the checkpoint file:  "TS_Indhfyseeankosok.chk"
 -------------------
 Title Card Required
 -------------------
 Charge =  2 Multiplicity = 1

                         Standard orientation:
 ---------------------------------------------------------------------
 Center     Atomic      Atomic             Coordinates (Angstroms)
 Number     Number       Type             X           Y           Z
 ---------------------------------------------------------------------
      1          6           0        0.667368    3.281143   -2.007585
      2          6           0        0.820175    1.988186   -1.513202
      3          6           0        0.310438    1.667191   -0.251019
      4          6           0       -0.315633    2.643906    0.529449
      5          6           0       -0.442747    3.938842    0.037638
      6          1           0        1.051238    3.527983   -2.993017
      7          1           0        1.337176    1.241370   -2.110633
      8          1           0       -0.704135    2.396259    1.512870
      9          1           0       -0.921826    4.700362    0.646003
     10         15           0        0.522373    0.004936    0.409458
     11          6           0       -1.964688   -0.005886    0.411534
     12          6           0       -2.655173   -0.436856    1.550457
     13          6           0       -2.709353    0.622502   -0.594480
     14          6           0       -4.012673   -0.220724    1.671798
     15          1           0       -2.144181   -0.946770    2.362354
     16          6           0       -4.064339    0.824202   -0.446974
     17          1           0       -2.238734    0.968970   -1.512472
     18          1           0       -4.604423   -0.517405    2.529869
     19          1           0       -4.695463    1.311279   -1.180914
     20          6           0        2.312619   -0.294787    0.236867
     21          6           0        2.805026   -1.504636   -0.264958
     22          6           0        3.213440    0.710676    0.618648
     23          6           0        4.179871   -1.707340   -0.379479
     24          1           0        2.130698   -2.297834   -0.573269
     25          6           0        4.583621    0.502920    0.507837
     26          1           0        2.846355    1.658929    1.004074
     27          6           0        5.068060   -0.707166    0.007977
     28          1           0        4.553140   -2.648312   -0.773148
     29          1           0        5.273737    1.286235    0.807652
     30          1           0        6.138941   -0.867164   -0.082022
     31          6           0        0.038789    4.254992   -1.233169
     32          1           0       -0.069480    5.265403   -1.617332
     33          8           0        0.231541   -0.036694    1.979830
     34          6           0       -0.310845   -1.339477   -0.422592
     35          6           0       -0.524484   -2.555183    0.286962
     36          6           0       -0.552620   -1.338666   -1.822899
     37          6           0       -1.124313   -3.604729   -0.348209
     38          1           0       -0.251606   -2.654659    1.331195
     39          6           0       -1.157509   -2.422568   -2.396556
     40          1           0       -0.298663   -0.490630   -2.446722
     41          1           0       -1.344505   -4.545853    0.140452
     42          1           0       -1.401584   -2.473969   -3.450487
     43          7           0       -1.455467   -3.514197   -1.657445
     44          6           0        1.168156   -0.511298    2.974215
     45          1           0        0.573015   -0.635045    3.879202
     46          1           0        1.603250   -1.468019    2.678654
     47          1           0        1.950152    0.232596    3.136928
     48          7           0       -4.674389    0.402459    0.678529
     49          1           0       -5.673917    0.560123    0.780961
     50          1           0       -1.887220   -4.313623   -2.111875
 ---------------------------------------------------------------------

 SCF Done:  E(RwB97XD) =  -1415.68117045     A.U. after    2 cycles

 The electronic state is 1-A.
 Alpha  occ. eigenvalues --  -77.38779 -19.33536 -14.56386 -14.55783 -10.39028
 Alpha  occ. eigenvalues --  -10.38829 -10.38735 -10.38346 -10.38302 -10.36020
 Alpha  occ. eigenvalues --  -10.34330 -10.34298 -10.34247 -10.33211 -10.33179
 Alpha  occ. eigenvalues --  -10.33169 -10.33124 -10.33072 -10.33035 -10.32847
 Alpha  occ. eigenvalues --  -10.32711 -10.32425 -10.32231 -10.32163 -10.32105
 Alpha  occ. eigenvalues --  -10.31929 -10.31923  -6.80222  -4.95219  -4.94954
 Alpha  occ. eigenvalues --   -4.94903  -1.18423  -1.13061  -1.12909  -0.98977
 Alpha  occ. eigenvalues --   -0.97801  -0.96710  -0.93270  -0.91579  -0.90724
 Alpha  occ. eigenvalues --   -0.89846  -0.86925  -0.86653  -0.86390  -0.84064
 Alpha  occ. eigenvalues --   -0.79961  -0.77948  -0.76580  -0.75655  -0.74927
 Alpha  occ. eigenvalues --   -0.72097  -0.71736  -0.71206  -0.70070  -0.69579
 Alpha  occ. eigenvalues --   -0.68205  -0.63845  -0.63199  -0.62308  -0.61663
 Alpha  occ. eigenvalues --   -0.60430  -0.58972  -0.58527  -0.57762  -0.57723
 Alpha  occ. eigenvalues --   -0.56370  -0.56088  -0.55688  -0.55554  -0.55368
 Alpha  occ. eigenvalues --   -0.55017  -0.54908  -0.54406  -0.53826  -0.53378
 Alpha  occ. eigenvalues --   -0.52444  -0.52171  -0.51065  -0.49993  -0.48739
 Alpha  occ. eigenvalues --   -0.48063  -0.47465  -0.46705  -0.46182  -0.44803
 Alpha  occ. eigenvalues --   -0.44675  -0.44223  -0.43963  -0.41666  -0.41316
 Alpha  occ. eigenvalues --   -0.38849  -0.38834  -0.37132  -0.36046  -0.35068
 Alpha  occ. eigenvalues --   -0.34919  -0.34425  -0.29535
 Alpha virt. eigenvalues --   -0.03135   0.00845   0.01383   0.01621   0.01991
 Alpha virt. eigenvalues --    0.03040   0.04215   0.04756   0.04897   0.05773
 Alpha virt. eigenvalues --    0.05918   0.06420   0.07437   0.07861   0.08186

 Mulliken charges:
               1
     1  C   -0.593404
     2  C   -0.183340
     3  C    0.246259
     4  C    0.373529
     5  C   -0.658984
     6  H    0.260235
     7  H    0.277770
     8  H    0.278265
     9  H    0.258476
    10  P   -0.384058
    11  C   -0.815057
    12  C    1.252633
    13  C    0.501869
    14  C   -0.664725
    15  H    0.273552
    16  C   -0.701532
    17  H    0.277654
    18  H    0.299907
    19  H    0.299845
    20  C   -0.260590
    21  C   -0.253851
    22  C    0.009995
    23  C    0.051363
    24  H    0.270097
    25  C   -0.158810
    26  H    0.274843
    27  C   -0.260765
    28  H    0.256292
    29  H    0.258573
    30  H    0.257708
    31  C   -0.309662
    32  H    0.259203
    33  O   -0.295273
    34  C   -0.917449
    35  C    0.887374
    36  C    0.998835
    37  C   -0.768016
    38  H    0.306222
    39  C   -1.068123
    40  H    0.311843
    41  H    0.306711
    42  H    0.306103
    43  N   -0.343503
    44  C   -0.293527
    45  H    0.261514
    46  H    0.270929
    47  H    0.270518
    48  N   -0.347643
    49  H    0.560212
    50  H    0.559982
 Sum of Mulliken charges =   2.00000

 Dipole moment (field-independent basis, Debye):
    X=            -14.1277    Y=             -8.6564    Z=             -1.6847  Tot=             16.6542
 Quadrupole moment (field-independent basis, Debye-Ang):
   XX=            -54.7819   YY=            -88.8352   ZZ=           -117.8557
   XY=              7.6344   XZ=              0.1828   YZ=              9.9191

  Exact polarizability: 442.381 -31.371 477.106 -30.377  18.046 395.173
 Approx polarizability: 323.975 -13.791 353.709 -19.166   9.263 317.499

 ******    1 imaginary frequencies (negative Signs) ******

                      1                      2                      3
                      A                      A                      A
 Frequencies --   -319.6335                25.9889                43.6188
 Red. masses --      9.7115                 4.9832                 4.0789
 Frc consts  --      0.5846                 0.0020                 0.0046
 IR Inten    --    776.5419                 1.2710                 0.5639

                      4                      5                      6
                      A                      A                      A
 Frequencies --     44.7443                53.7965                59.3287
 Red. masses --      4.6171                 3.8974                 5.1002
 Frc consts  --      0.0054                 0.0066                 0.0106
 IR Inten    --      1.7598                 0.3322                 3.9815

                      7                      8                      9
                      A                      A                      A
 Frequencies --     60.7956                63.6645                77.0212
 Red. masses --      5.0739                 4.5678                 3.8229
 Frc consts  --      0.0110                 0.0109                 0.0134
 IR Inten    --      5.5991                 2.3891                 4.0497

                     10                     11                     12
                      A                      A                      A
 Frequencies --     87.9920               108.0355               119.9702
 Red. masses --      2.7338                 5.0531                 4.2948
 Frc consts  --      0.0125                 0.0347                 0.0364
 IR Inten    --      8.8720                12.4900                13.9960

                     13                     14                     15
                      A                      A                      A
 Frequencies --    144.2678               156.5584               176.2507
 Red. masses --      3.6174                 1.6447                 4.8902
 Frc consts  --      0.0444                 0.0238                 0.0895
 IR Inten    --      8.9806                 1.1704                 0.2563

                     16                     17                     18
                      A                      A                      A
 Frequencies --    183.1057               223.2365               235.3803
 Red. masses --      2.3170                 4.9562                 4.6452
 Frc consts  --      0.0458                 0.1455                 0.1516
 IR Inten    --      5.8795                 7.0526                 3.2172

                     19                     20                     21
                      A                      A                      A
 Frequencies --    243.4368               256.8689               276.2825
 Red. masses --      4.1435                 6.0316                 5.2989
 Frc consts  --      0.1447                 0.2345                 0.2383
 IR Inten    --      2.6376                15.2229                 3.8341

                     22                     23                     24
                      A                      A                      A
 Frequencies --    278.1213               334.2654               335.1726
 Red. masses --      4.8522                 4.9529                 4.0665
 Frc consts  --      0.2211                 0.3261                 0.2692
 IR Inten    --      0.8327                48.6517                48.3389

                     25                     26                     27
                      A                      A                      A
 Frequencies --    386.3185               396.4454               410.0860
 Red. masses --      2.7005                 4.9335                 2.8536
 Frc consts  --      0.2375                 0.4568                 0.2827
 IR Inten    --      1.6671                26.8824                 1.7950

                     28                     29                     30
                      A                      A                      A
 Frequencies --    412.9950               435.0624               446.8401
 Red. masses --      2.8773                 2.9740                 4.8277
 Frc consts  --      0.2892                 0.3317                 0.5679
 IR Inten    --      0.8056                 0.1454                80.1982

                     31                     32                     33
                      A                      A                      A
 Frequencies --    477.2676               507.0017               531.1670
 Red. masses --      3.8530                 4.1350                 5.3120
 Frc consts  --      0.5171                 0.6262                 0.8830
 IR Inten    --     11.2005                57.4016               192.9087

                     34                     35                     36
                      A                      A                      A
 Frequencies --    549.0841               631.1854               633.4461
 Red. masses --      6.4663                 6.4709                 6.4652
 Frc consts  --      1.1486                 1.5189                 1.5285
 IR Inten    --    188.1957                 0.0535                 0.8141

                     37                     38                     39
                      A                      A                      A
 Frequencies --    634.0086               657.2675               662.0948
 Red. masses --      6.5727                 6.5363                 6.5257
 Frc consts  --      1.5566                 1.6637                 1.6854
 IR Inten    --      2.0924                 1.5190                 1.4390

                     40                     41                     42
                      A                      A                      A
 Frequencies --    669.8085               694.9885               713.1476
 Red. masses --      3.3431                 4.6071                 1.7902
 Frc consts  --      0.8837                 1.3111                 0.5364
 IR Inten    --    162.5418                 7.3027                86.8020

                     43                     44                     45
                      A                      A                      A
 Frequencies --    714.2846               716.0432               734.5772
 Red. masses --      2.0799                 3.3700                 3.2185
 Frc consts  --      0.6252                 1.0180                 1.0232
 IR Inten    --     62.5509               118.1245                46.1025

                     46                     47                     48
                      A                      A                      A
 Frequencies --    744.0519               762.1090               767.4786
 Red. masses --      1.4540                 2.6559                 1.5307
 Frc consts  --      0.4743                 0.9089                 0.5312
 IR Inten    --    204.2696                44.8057               206.5917

                     49                     50                     51
                      A                      A                      A
 Frequencies --    772.5044               776.1921               817.0718
 Red. masses --      1.9486                 1.8462                 7.2517
 Frc consts  --      0.6851                 0.6553                 2.8524
 IR Inten    --     92.2839                 8.2343                94.2748

                     52                     53                     54
                      A                      A                      A
 Frequencies --    849.1269               858.2728               878.6108
 Red. masses --      1.4024                 1.2549                 1.2489
 Frc consts  --      0.5958                 0.5446                 0.5680
 IR Inten    --     73.2331                 0.0626                 0.1931

                     55                     56                     57
                      A                      A                      A
 Frequencies --    880.7819               892.7990               894.4077
 Red. masses --      1.2439                 1.2735                 1.2991
 Frc consts  --      0.5686                 0.5981                 0.6123
 IR Inten    --      0.1381                 5.0055                14.7924

                     58                     59                     60
                      A                      A                      A
 Frequencies --    965.6660               972.4894              1010.0730
 Red. masses --      1.3439                 1.3349                 1.3068
 Frc consts  --      0.7384                 0.7438                 0.7855
 IR Inten    --      1.1274                 1.4480                 2.3030

                     61                     62                     63
                      A                      A                      A
 Frequencies --   1012.2600              1015.8789              1018.9261
 Red. masses --      1.4501                 3.5868                 1.4625
 Frc consts  --      0.8754                 2.1809                 0.8946
 IR Inten    --      9.3158                49.9049                 0.8018

                     64                     65                     66
                      A                      A                      A
 Frequencies --   1019.0998              1019.3802              1022.2654
 Red. masses --      1.5187                 1.5445                 5.4688
 Frc consts  --      0.9293                 0.9456                 3.3672
 IR Inten    --      1.0306                 8.2966                 3.3708

                     67                     68                     69
                      A                      A                      A
 Frequencies --   1022.9531              1024.8597              1032.3288
 Red. masses --      3.0998                 1.4094                 5.7197
 Frc consts  --      1.9112                 0.8722                 3.5914
 IR Inten    --      8.0505                 7.1772                 0.9439

                     70                     71                     72
                      A                      A                      A
 Frequencies --   1041.0100              1043.8012              1051.7026
 Red. masses --      1.3272                 1.3268                 5.8190
 Frc consts  --      0.8474                 0.8517                 3.7922
 IR Inten    --      0.0032                 0.2159                17.8032

                     73                     74                     75
                      A                      A                      A
 Frequencies --   1062.4334              1063.7693              1080.3849
 Red. masses --      2.9787                 2.7214                 6.1010
 Frc consts  --      1.9810                 1.8144                 4.1957
 IR Inten    --     25.9015                 7.8743               441.4994

                     76                     77                     78
                      A                      A                      A
 Frequencies --   1091.5391              1099.1795              1125.8752
 Red. masses --      2.4166                 1.9137                 1.6322
 Frc consts  --      1.6964                 1.3623                 1.2190
 IR Inten    --     42.1070                19.1132                 8.6256

                     79                     80                     81
                      A                      A                      A
 Frequencies --   1126.2594              1129.7311              1141.7379
 Red. masses --      1.6460                 1.6163                 2.9848
 Frc consts  --      1.2301                 1.2154                 2.2924
 IR Inten    --      7.8246                 8.8164                89.3410

                     82                     83                     84
                      A                      A                      A
 Frequencies --   1148.8546              1153.6186              1178.4396
 Red. masses --      2.0138                 2.6361                 4.3426
 Frc consts  --      1.5660                 2.0670                 3.5532
 IR Inten    --     84.3680               108.2822               143.2738

                     85                     86                     87
                      A                      A                      A
 Frequencies --   1185.4449              1194.5486              1194.7792
 Red. masses --      1.2441                 1.1037                 1.0998
 Frc consts  --      1.0301                 0.9279                 0.9250
 IR Inten    --      2.9303                 0.9934                 0.2960

                     88                     89                     90
                      A                      A                      A
 Frequencies --   1212.5424              1226.2665              1228.5790
 Red. masses --      1.3211                 1.1352                 1.1462
 Frc consts  --      1.1444                 1.0058                 1.0193
 IR Inten    --     24.7418                 7.6444                 2.1121

                     91                     92                     93
                      A                      A                      A
 Frequencies --   1233.0397              1252.3427              1291.1894
 Red. masses --      1.1732                 1.1787                 1.5401
 Frc consts  --      1.0510                 1.0892                 1.5128
 IR Inten    --     14.0953                58.5673                 8.9503

                     94                     95                     96
                      A                      A                      A
 Frequencies --   1297.1771              1335.7189              1337.6364
 Red. masses --      1.3377                 2.8450                 1.6226
 Frc consts  --      1.3262                 2.9906                 1.7106
 IR Inten    --      1.0236                 1.2380                 0.7222

                     97                     98                     99
                      A                      A                      A
 Frequencies --   1340.9734              1345.6778              1376.6288
 Red. masses --      1.9783                 2.8608                 1.5483
 Frc consts  --      2.0960                 3.0523                 1.7288
 IR Inten    --      1.3754                 3.9962                 7.8042

                    100                    101                    102
                      A                      A                      A
 Frequencies --   1382.7742              1404.8709              1445.2712
 Red. masses --      1.4529                 2.6899                 2.0813
 Frc consts  --      1.6368                 3.1280                 2.5614
 IR Inten    --      7.8659                13.4555                 2.0265

                    103                    104                    105
                      A                      A                      A
 Frequencies --   1488.6098              1492.2714              1499.8137
 Red. masses --      2.1458                 2.1762                 1.0903
 Frc consts  --      2.8015                 2.8552                 1.4450
 IR Inten    --     42.4955                31.6584                13.2678

                    106                    107                    108
                      A                      A                      A
 Frequencies --   1507.4512              1517.2743              1518.2540
 Red. masses --      1.0858                 1.0617                 1.9815
 Frc consts  --      1.4538                 1.4401                 2.6911
 IR Inten    --     15.1587                 9.4323                47.1410

                    109                    110                    111
                      A                      A                      A
 Frequencies --   1525.9047              1543.5654              1544.1705
 Red. masses --      1.8916                 2.0534                 2.0476
 Frc consts  --      2.5950                 2.8825                 2.8767
 IR Inten    --    154.1477                 2.4753                 7.7838

                    112                    113                    114
                      A                      A                      A
 Frequencies --   1547.2818              1552.2257              1650.6831
 Red. masses --      2.5365                 3.3003                 2.4999
 Frc consts  --      3.5779                 4.6850                 4.0133
 IR Inten    --     44.8989                 9.1562               125.1319

                    115                    116                    117
                      A                      A                      A
 Frequencies --   1657.6538              1660.3587              1670.2077
 Red. masses --      5.3926                 5.4779                 3.6568
 Frc consts  --      8.7304                 8.8974                 6.0103
 IR Inten    --      3.0140                 3.1730               243.5438

                    118                    119                    120
                      A                      A                      A
 Frequencies --   1672.0551              1674.6436              1675.3945
 Red. masses --      4.0454                 5.5295                 5.5576
 Frc consts  --      6.6637                 9.1365                 9.1912
 IR Inten    --    384.0150                10.2535                14.8563

                    121                    122                    123
                      A                      A                      A
 Frequencies --   1708.3365              3100.7260              3201.1781
 Red. masses --      5.0412                 1.0285                 1.1101
 Frc consts  --      8.6683                 5.8261                 6.7026
 IR Inten    --    462.7916                47.7764                14.4685

                    124                    125                    126
                      A                      A                      A
 Frequencies --   3207.2679              3211.7918              3213.6455
 Red. masses --      1.0908                 1.1083                 1.0895
 Frc consts  --      6.6112                 6.7360                 6.6293
 IR Inten    --     12.6004                15.3510                 1.5431

                    127                    128                    129
                      A                      A                      A
 Frequencies --   3216.6768              3221.4978              3224.4656
 Red. masses --      1.0902                 1.0888                 1.0887
 Frc consts  --      6.6463                 6.6574                 6.6695
 IR Inten    --      0.6781                 0.7354                 1.0298

                    130                    131                    132
                      A                      A                      A
 Frequencies --   3230.0234              3230.8682              3232.7951
 Red. masses --      1.0905                 1.0920                 1.0917
 Frc consts  --      6.7031                 6.7157                 6.7219
 IR Inten    --     15.2488                 8.8912                 6.1594

                    133                    134                    135
                      A                      A                      A
 Frequencies --   3238.8540              3240.6721              3245.0022
 Red. masses --      1.0953                 1.0956                 1.0980
 Frc consts  --      6.7698                 6.7789                 6.8120
 IR Inten    --     22.6228                13.3867                16.6378

                    136                    137                    138
                      A                      A                      A
 Frequencies --   3246.6357              3265.4723              3275.4542
 Red. masses --      1.0992                 1.0915                 1.0972
 Frc consts  --      6.8263                 6.8578                 6.9355
 IR Inten    --     13.7535                 3.0849                 0.8677

                    139                    140                    141
                      A                      A                      A
 Frequencies --   3277.8719              3279.8834              3287.9171
 Red. masses --      1.0976                 1.0909                 1.0988
 Frc consts  --      6.9485                 6.9144                 6.9987
 IR Inten    --      1.3675                 3.4143                 3.0676

                    142                    143                    144
                      A                      A                      A
 Frequencies --   3291.2918              3621.9356              3625.7598
 Red. masses --      1.0994                 1.0812                 1.0810
 Frc consts  --      7.0171                 8.3568                 8.3732
 IR Inten    --      3.2835               368.9312               458.5921

 - Thermochemistry -
 -------------------
 Temperature   298.150 Kelvin.  Pressure   1.00000 Atm.
 Atom     1 has atomic number  6 and mass  12.00000

 Molecular mass:   374.15480 amu.
 Principal axes and moments of inertia in atomic units:
                           1         2         3
     Eigenvalues --  7399.26629********************
           X            0.99999  -0.00314   0.00214
           Y            0.00316   0.99997  -0.00698
           Z           -0.00212   0.00699   0.99997
 This molecule is an asymmetric top.
 Rotational symmetry number  1.
 Warning -- assumption of classical behavior for rotation
           may cause significant error
 Rotational temperatures (Kelvin)      0.01171     0.00838     0.00647
 Rotational constants (GHZ):           0.24391     0.17470     0.13474
    1 imaginary frequencies ignored.
 Zero-point vibrational energy    1093077.3 (Joules/Mol)
                                  261.25174 (Kcal/Mol)
 Warning -- explicit consideration of  33 degrees of freedom as
           vibrations may cause significant error
 Vibrational temperatures:     37.39    62.76    64.38    77.40    85.36
          (Kelvin)             87.47    91.60   110.82   126.60   155.44
                              172.61   207.57   225.25   253.59   263.45
                              321.19   338.66   350.25   369.58   397.51
                              400.15   480.93   482.24   555.83   570.40
                              590.02   594.21   625.96   642.90   686.68
                              729.46   764.23   790.01   908.14   911.39
                              912.20   945.66   952.61   963.71   999.93
                             1026.06  1027.70  1030.23  1056.89  1070.52
                             1096.50  1104.23  1111.46  1116.77  1175.58
                             1221.70  1234.86  1264.12  1267.25  1284.54
                             1286.85  1389.38  1399.20  1453.27  1456.42
                             1461.62  1466.01  1466.26  1466.66  1470.81
                             1471.80  1474.54  1485.29  1497.78  1501.80
                             1513.17  1528.60  1530.53  1554.43  1570.48
                             1581.47  1619.88  1620.44  1625.43  1642.71
                             1652.95  1659.80  1695.51  1705.59  1718.69
                             1719.02  1744.58  1764.32  1767.65  1774.07
                             1801.84  1857.73  1866.35  1921.80  1924.56
                             1929.36  1936.13  1980.66  1989.50  2021.30
                             2079.42  2141.78  2147.05  2157.90  2168.89
                             2183.02  2184.43  2195.44  2220.85  2221.72
                             2226.19  2233.31  2374.96  2384.99  2388.89
                             2403.06  2405.71  2409.44  2410.52  2457.92
                             4461.25  4605.78  4614.54  4621.05  4623.72
                             4628.08  4635.02  4639.29  4647.28  4648.50
                             4651.27  4659.99  4662.60  4668.83  4671.18
                             4698.29  4712.65  4716.13  4719.02  4730.58
                             4735.43  5211.16  5216.66

 Zero-point correction=                           0.416331 (Hartree/Particle)
 Thermal correction to Energy=                    0.440031
 Thermal correction to Enthalpy=                  0.440975
 Thermal correction to Gibbs Free Energy=         0.361788
 Sum of electronic and zero-point Energies=          -1415.264839
 Sum of electronic and thermal Energies=             -1415.241139
 Sum of electronic and thermal Enthalpies=           -1415.240195
 Sum of electronic and thermal Free Energies=        -1415.319383

                     E (Thermal)             CV                S
                      KCal/Mol        Cal/Mol-Kelvin    Cal/Mol-Kelvin
 Total                  276.124             91.851            166.664
 Electronic               0.000              0.000              0.000
 Translational            0.889              2.981             43.651
 Rotational               0.889              2.981             35.280
 Vibrational            274.346             85.889             87.732
 Vibration     1          0.593              1.985              6.114
 Vibration     2          0.595              1.980              5.088
 Vibration     3          0.595              1.980              5.037
 Vibration     4          0.596              1.976              4.673
 Vibration     5          0.597              1.974              4.479
 Vibration     6          0.597              1.973              4.431
 Vibration     7          0.597              1.972              4.340
 Vibration     8          0.599              1.964              3.965
 Vibration     9          0.601              1.958              3.704
 Vibration    10          0.606              1.943              3.304
 Vibration    11          0.609              1.933              3.101
 Vibration    12          0.616              1.909              2.746
 Vibration    13          0.620              1.895              2.591
 Vibration    14          0.628              1.872              2.368
 Vibration    15          0.631              1.863              2.297
 Vibration    16          0.649              1.806              1.933
 Vibration    17          0.655              1.787              1.838
 Vibration    18          0.659              1.774              1.778
 Vibration    19          0.666              1.751              1.683
 Vibration    20          0.678              1.717              1.557
 Vibration    21          0.679              1.714              1.545
 Vibration    22          0.716              1.607              1.239
 Vibration    23          0.716              1.605              1.235
 Vibration    24          0.755              1.499              1.014
 Vibration    25          0.763              1.478              0.976
 Vibration    26          0.774              1.448              0.926
 Vibration    27          0.777              1.442              0.916
 Vibration    28          0.796              1.394              0.842
 Vibration    29          0.806              1.368              0.805
 Vibration    30          0.834              1.300              0.717
 Vibration    31          0.862              1.234              0.641
 Vibration    32          0.886              1.181              0.585
 Vibration    33          0.904              1.142              0.546

 Optimization completed.
    -- Stationary point found.
 Normal termination of Gaussian 16 at Mon Mar 19 01:26:35 2018.
