                         Program Version 4.0.1.2 - RELEASE -
|  1> !CPCM DLPNO-CCSD(T) Extrapolate(2/3,cc)  RIJCOSX GRIDX5 TightSCF KDIIS
|  2> %cpcm
|  3> smd true
|  4> solvent "Ethanol"
|  5> end
|  6> # Number of processors
|  7> %pal nprocs 24 end
|  8> # Memory per core
|  9> %maxcore 4000
| 10> %scf maxiter 500
| 11>     end
| 12> % mdci
| 13>    # Loose cut-off
| 14>    #  TCutPairs 1e-3
| 15>    #  TCutPNO 1e-6
| 16>    #  TCutMKN 1e-3
| 17>    # Normal cut-off
| 18>      TCutPairs 1e-4
| 19>      TCutPNO 3.33e-7
| 20>      TCutMKN 1e-3
| 21>    # Tight cut-off
| 22>    #TCutPairs 1e-5
| 23>    #TCutPNO 1e-7
| 24>    #TCutMKN 1e-4
| 25>    # Faster/less disk-IO for large jobs
| 26>    #LocalTrafo 3
| 27>    Density None
| 28> end
| 29> % output
| 30>    printlevel mini
| 31>    print[ P_SCFInfo ] 1
| 32>    print[ P_SCFIterInfo ] 1
| 33>    print[ P_OrbEn ] 0
| 34>    print[ P_Cartesian ] 0
| 35> end
| 36> % elprop
| 37>    Dipole False
| 38> end
| 39> * xyz 2 1
| 40>  C                  0.66736800    3.28114300   -2.00758500
| 41>  C                  0.82017500    1.98818600   -1.51320200
| 42>  C                  0.31043800    1.66719100   -0.25101900
| 43>  C                 -0.31563300    2.64390600    0.52944900
| 44>  C                 -0.44274700    3.93884200    0.03763800
| 45>  H                  1.05123800    3.52798300   -2.99301700
| 46>  H                  1.33717600    1.24137000   -2.11063300
| 47>  H                 -0.70413500    2.39625900    1.51287000
| 48>  H                 -0.92182600    4.70036200    0.64600300
| 49>  P                  0.52237300    0.00493600    0.40945800
| 50>  C                 -1.96468800   -0.00588600    0.41153400
| 51>  C                 -2.65517300   -0.43685600    1.55045700
| 52>  C                 -2.70935300    0.62250200   -0.59448000
| 53>  C                 -4.01267300   -0.22072400    1.67179800
| 54>  H                 -2.14418100   -0.94677000    2.36235400
| 55>  C                 -4.06433900    0.82420200   -0.44697400
| 56>  H                 -2.23873400    0.96897000   -1.51247200
| 57>  H                 -4.60442300   -0.51740500    2.52986900
| 58>  H                 -4.69546300    1.31127900   -1.18091400
| 59>  C                  2.31261900   -0.29478700    0.23686700
| 60>  C                  2.80502600   -1.50463600   -0.26495800
| 61>  C                  3.21344000    0.71067600    0.61864800
| 62>  C                  4.17987100   -1.70734000   -0.37947900
| 63>  H                  2.13069800   -2.29783400   -0.57326900
| 64>  C                  4.58362100    0.50292000    0.50783700
| 65>  H                  2.84635500    1.65892900    1.00407400
| 66>  C                  5.06806000   -0.70716600    0.00797700
| 67>  H                  4.55314000   -2.64831200   -0.77314800
| 68>  H                  5.27373700    1.28623500    0.80765200
| 69>  H                  6.13894100   -0.86716400   -0.08202200
| 70>  C                  0.03878900    4.25499200   -1.23316900
| 71>  H                 -0.06948000    5.26540300   -1.61733200
| 72>  O                  0.23154100   -0.03669400    1.97983000
| 73>  C                 -0.31084500   -1.33947700   -0.42259200
| 74>  C                 -0.52448400   -2.55518300    0.28696200
| 75>  C                 -0.55262000   -1.33866600   -1.82289900
| 76>  C                 -1.12431300   -3.60472900   -0.34820900
| 77>  H                 -0.25160600   -2.65465900    1.33119500
| 78>  C                 -1.15750900   -2.42256800   -2.39655600
| 79>  H                 -0.29866300   -0.49063000   -2.44672200
| 80>  H                 -1.34450500   -4.54585300    0.14045200
| 81>  H                 -1.40158400   -2.47396900   -3.45048700
| 82>  N                 -1.45546700   -3.51419700   -1.65744500
| 83>  C                  1.16815600   -0.51129800    2.97421500
| 84>  H                  0.57301500   -0.63504500    3.87920200
| 85>  H                  1.60325000   -1.46801900    2.67865400
| 86>  H                  1.95015200    0.23259600    3.13692800
| 87>  N                 -4.67438900    0.40245900    0.67852900
| 88>  H                 -5.67391700    0.56012300    0.78096100
| 89>  H                 -1.88722000   -4.31362300   -2.11187500
| 90> *
| 91>
| 92>                          ****END OF INPUT****
 Total Charge           Charge          ....    2
 Multiplicity           Mult            ....    1
 Number of Electrons    NEL             ....  196
E(0)                                       ...  -1408.605562741
E(0)                                       ...  -1408.605562741
E(CORR)(strong-pairs)                      ...     -3.745347317
E(CORR)(weak-pairs)                        ...     -0.033806446
E(CORR)(corrected)                         ...     -3.779153763
E(TOT)                                     ...  -1412.384716504
 Multiplicity           Mult            ....    1
 Number of Electrons    NEL             ....  196
 Basis Dimension        Dim             .... 1136
E(0)                                       ...  -1408.899584585
E(CORR)(strong-pairs)                      ...     -4.462678319
E(CORR)(weak-pairs)                        ...     -0.041366115
E(CORR)(corrected)                         ...     -4.504044434
E(TOT)                                     ...  -1413.403629019
E(CCSD(T))                                 ...  -1413.631562151
FINAL SINGLE POINT ENERGY     -1414.192701660274
                             ****ORCA TERMINATED NORMALLY****
TOTAL RUN TIME: 0 days 7 hours 25 minutes 56 seconds 322 msec
