                         Program Version 4.0.1.2 - RELEASE -
|  1> !CPCM DLPNO-CCSD(T) Extrapolate(2/3,cc)  RIJCOSX GRIDX5 TightSCF KDIIS
|  2> %cpcm
|  3> smd true
|  4> solvent "Ethanol"
|  5> end
|  6> # Number of processors
|  7> %pal nprocs 24 end
|  8> # Memory per core
|  9> %maxcore 4000
| 10> %scf maxiter 500
| 11>     end
| 12> % mdci
| 13>    # Loose cut-off
| 14>    #  TCutPairs 1e-3
| 15>    #  TCutPNO 1e-6
| 16>    #  TCutMKN 1e-3
| 17>    # Normal cut-off
| 18>      TCutPairs 1e-4
| 19>      TCutPNO 3.33e-7
| 20>      TCutMKN 1e-3
| 21>    # Tight cut-off
| 22>    #TCutPairs 1e-5
| 23>    #TCutPNO 1e-7
| 24>    #TCutMKN 1e-4
| 25>    # Faster/less disk-IO for large jobs
| 26>    #LocalTrafo 3
| 27>    Density None
| 28> end
| 29> % output
| 30>    printlevel mini
| 31>    print[ P_SCFInfo ] 1
| 32>    print[ P_SCFIterInfo ] 1
| 33>    print[ P_OrbEn ] 0
| 34>    print[ P_Cartesian ] 0
| 35> end
| 36> % elprop
| 37>    Dipole False
| 38> end
| 39> * xyz 2 1
| 40>  C                  4.05855600   -1.20594300   -0.42388500
| 41>  C                  2.83341400   -0.73210800   -0.88347700
| 42>  C                  1.98042100   -0.03682300   -0.01477000
| 43>  C                  2.38161200    0.21251800    1.30111400
| 44>  C                  3.61431800   -0.25141000    1.74898900
| 45>  H                  4.71025000   -1.75093400   -1.10023100
| 46>  H                  2.55535000   -0.89524200   -1.92106600
| 47>  H                  1.75011000    0.76398500    1.98624600
| 48>  H                  3.92086200   -0.05099800    2.77129400
| 49>  P                  0.42017000    0.54926800   -0.70991300
| 50>  C                 -0.39207700    1.94427000    0.11781800
| 51>  C                 -0.87134000    2.96390400   -0.71778900
| 52>  C                 -0.54827000    2.06437800    1.50503100
| 53>  C                 -1.50051300    4.07967800   -0.17325800
| 54>  H                 -0.76006200    2.89141400   -1.79481100
| 55>  C                 -1.16277000    3.18988800    2.04291800
| 56>  H                 -0.21954700    1.28400300    2.17992400
| 57>  H                 -1.87474900    4.85701300   -0.83275500
| 58>  H                 -1.27292100    3.27325800    3.12002800
| 59>  C                 -0.75704600   -0.99163000    0.84616700
| 60>  C                 -2.01269400   -0.71631300    1.39552800
| 61>  C                 -0.02090300   -2.04584200    1.39852900
| 62>  C                 -2.47863000   -1.43845000    2.47310200
| 63>  H                 -2.64871300    0.06685500    0.99030900
| 64>  C                 -0.51579900   -2.75244100    2.47470500
| 65>  H                  0.94703600   -2.33651800    0.99992200
| 66>  H                 -3.43330300   -1.26698400    2.95588600
| 67>  H                  0.00592400   -3.56979200    2.95751900
| 68>  C                  4.44843900   -0.96910200    0.89287500
| 69>  H                  5.40706600   -1.33475900    1.24955100
| 70>  O                  0.88392300    1.18282600   -2.13700600
| 71>  C                 -0.70320900   -0.70758200   -1.27668500
| 72>  C                 -0.25449400   -1.98891100   -1.74061400
| 73>  C                 -2.03202600   -0.32354800   -1.65533200
| 74>  C                 -1.15462300   -2.86618700   -2.26538200
| 75>  H                  0.77454900   -2.30574100   -1.62860600
| 76>  C                 -2.87863100   -1.25250000   -2.18309700
| 77>  H                 -2.39797800    0.68313900   -1.49220400
| 78>  H                 -0.88346600   -3.86497500   -2.58477300
| 79>  H                 -3.90596400   -1.03082500   -2.44519700
| 80>  C                  1.92469200    2.16936200   -2.25294000
| 81>  H                  2.88221200    1.66759600   -2.41463800
| 82>  H                  1.67383200    2.78331900   -3.11936800
| 83>  H                  1.98454400    2.80161400   -1.36192400
| 84>  N                 -1.71901300   -2.42671400    2.98205300
| 85>  H                 -2.07311300   -2.95431400    3.77670200
| 86>  N                 -2.45149300   -2.51102700   -2.44207400
| 87>  H                 -3.09425700   -3.17651000   -2.85839200
| 88>  C                 -1.64204600    4.19746500    1.20699700
| 89>  H                 -2.12634300    5.07190800    1.63220800
| 90> *
| 91>
| 92>                          ****END OF INPUT****
 Total Charge           Charge          ....    2
 Multiplicity           Mult            ....    1
 Number of Electrons    NEL             ....  196
E(0)                                       ...  -1408.606357451
E(0)                                       ...  -1408.606357451
E(CORR)(strong-pairs)                      ...     -3.750342849
E(CORR)(weak-pairs)                        ...     -0.033829894
E(CORR)(corrected)                         ...     -3.784172743
E(TOT)                                     ...  -1412.390530194
 Multiplicity           Mult            ....    1
 Number of Electrons    NEL             ....  196
 Basis Dimension        Dim             .... 1136
E(0)                                       ...  -1408.899170588
E(CORR)(strong-pairs)                      ...     -4.467670694
E(CORR)(weak-pairs)                        ...     -0.042330003
E(CORR)(corrected)                         ...     -4.510000698
E(TOT)                                     ...  -1413.409171286
E(CCSD(T))                                 ...  -1413.637833715
FINAL SINGLE POINT ENERGY     -1414.199207762342
                             ****ORCA TERMINATED NORMALLY****
TOTAL RUN TIME: 0 days 7 hours 50 minutes 49 seconds 469 msec
