 Gaussian 16, Revision A.03,
 Gaussian 16:  ES64L-G16RevA.03 25-Dec-2016

 ----------------------------------------------------------------------
 # opt=(calcfc,qst3,maxcycle=600) scrf=(solvent=ethanol,smd) freq=noram
 an wb97xd/6-31+g(d) geom=connectivity
 ----------------------------------------------------------------------

 -------------------
 Title Card Required
 -------------------
 Symbolic Z-matrix:
 Charge =  2 Multiplicity = 1

 -------------------
 Title Card Required
 -------------------
 Symbolic Z-matrix:
 Charge =  2 Multiplicity = 1

 -------------------
 Title Card Required
 -------------------
 Symbolic Z-matrix:
 Charge =  2 Multiplicity = 1

 SCF Done:  E(RwB97XD) =  -1415.68213323     A.U. after   18 cycles
 SCF Done:  E(RwB97XD) =  -1415.68291146     A.U. after   17 cycles
 SCF Done:  E(RwB97XD) =  -1415.67556858     A.U. after   18 cycles
 SCF Done:  E(RwB97XD) =  -1415.67908338     A.U. after   18 cycles
 SCF Done:  E(RwB97XD) =  -1415.68115544     A.U. after   17 cycles
 SCF Done:  E(RwB97XD) =  -1415.68196281     A.U. after   16 cycles
 SCF Done:  E(RwB97XD) =  -1415.68218316     A.U. after   15 cycles
 SCF Done:  E(RwB97XD) =  -1415.68215052     A.U. after   14 cycles
 SCF Done:  E(RwB97XD) =  -1415.68182691     A.U. after   16 cycles
 SCF Done:  E(RwB97XD) =  -1415.68209017     A.U. after   15 cycles
 SCF Done:  E(RwB97XD) =  -1415.68215723     A.U. after   14 cycles
 SCF Done:  E(RwB97XD) =  -1415.68212075     A.U. after   14 cycles
 SCF Done:  E(RwB97XD) =  -1415.68213682     A.U. after   13 cycles
 SCF Done:  E(RwB97XD) =  -1415.68217478     A.U. after   14 cycles
 SCF Done:  E(RwB97XD) =  -1415.68213856     A.U. after   13 cycles
 SCF Done:  E(RwB97XD) =  -1415.68213605     A.U. after   13 cycles
 SCF Done:  E(RwB97XD) =  -1415.68214023     A.U. after   12 cycles
 SCF Done:  E(RwB97XD) =  -1415.68214235     A.U. after   12 cycles
 SCF Done:  E(RwB97XD) =  -1415.68213982     A.U. after   10 cycles
 Optimization completed.
    -- Stationary point found.
 Normal termination of Gaussian 16 at Tue Mar 20 23:39:03 2018.

 ----------------------------------------------------------------------
 #N Geom=AllCheck Guess=TCheck SCRF=Check GenChk RwB97XD/6-31+G(d) Freq
 ----------------------------------------------------------------------

 Structure from the checkpoint file:  "T443teqwdrScan_ang.chk"
 -------------------
 Title Card Required
 -------------------
 Charge =  2 Multiplicity = 1

                         Standard orientation:
 ---------------------------------------------------------------------
 Center     Atomic      Atomic             Coordinates (Angstroms)
 Number     Number       Type             X           Y           Z
 ---------------------------------------------------------------------
      1          6           0       -3.719512    1.106179    1.356007
      2          6           0       -2.425299    1.206911    0.855155
      3          6           0       -1.989312    0.327192   -0.142970
      4          6           0       -2.880395   -0.622045   -0.663645
      5          6           0       -4.172241   -0.718295   -0.153624
      6          1           0       -4.045177    1.792092    2.132354
      7          1           0       -1.775061    1.980745    1.244554
      8          1           0       -2.595123   -1.283350   -1.474638
      9          1           0       -4.851910   -1.461054   -0.560530
     10         15           0       -0.337108    0.491520   -0.854790
     11          6           0        0.585512   -1.027575   -1.072586
     12          6           0        1.943457   -0.879354   -1.505822
     13          6           0        0.029386   -2.344311   -1.183731
     14          6           0        2.702385   -1.983365   -1.767834
     15          1           0        2.404465    0.096392   -1.601308
     16          6           0        0.842547   -3.402179   -1.457329
     17          1           0       -1.013162   -2.543580   -0.978794
     18          1           0        3.744043   -1.924706   -2.059045
     19          1           0        0.480819   -4.421782   -1.504202
     20          6           0        0.541029   -0.820115    1.080328
     21          6           0        1.848026   -0.728154    1.568397
     22          6           0       -0.403784   -1.484500    1.871847
     23          6           0        2.174411   -1.243162    2.803683
     24          1           0        2.634100   -0.248311    0.989545
     25          6           0       -0.045540   -1.990585    3.104449
     26          1           0       -1.432331   -1.618360    1.549885
     27          1           0        3.162756   -1.193891    3.244444
     28          1           0       -0.728752   -2.499626    3.773720
     29          6           0       -4.591017    0.137282    0.862633
     30          1           0       -5.599117    0.058650    1.259428
     31          8           0       -0.599839    1.085802   -2.348534
     32          6           0        0.664814    1.871563   -0.235483
     33          6           0        0.761376    2.191305    1.125399
     34          6           0        1.360885    2.645472   -1.174999
     35          6           0        1.534927    3.271670    1.535572
     36          1           0        0.245217    1.606469    1.877740
     37          6           0        2.148412    3.713629   -0.754341
     38          1           0        1.293926    2.417490   -2.232658
     39          1           0        1.593519    3.514085    2.592500
     40          1           0        2.690657    4.298545   -1.491358
     41          6           0       -1.274928    0.356717   -3.383422
     42          1           0       -2.356075    0.390662   -3.223100
     43          1           0       -1.027933    0.863503   -4.317377
     44          1           0       -0.929024   -0.680681   -3.430464
     45          6           0        2.234067    4.031250    0.598862
     46          1           0        2.843478    4.869768    0.923937
     47          7           0        1.221526   -1.852153    3.535402
     48          7           0        2.162932   -3.220835   -1.709269
     49          1           0        1.470191   -2.229175    4.447071
     50          1           0        2.739403   -4.025376   -1.933785
 ---------------------------------------------------------------------

 SCF Done:  E(RwB97XD) =  -1415.68213982     A.U. after    2 cycles

 The electronic state is 1-A.
 Alpha  occ. eigenvalues --  -77.38817 -19.31931 -14.56861 -14.55131 -10.39514
 Alpha  occ. eigenvalues --  -10.38798 -10.38772 -10.38521 -10.38249 -10.35559
 Alpha  occ. eigenvalues --  -10.34902 -10.34800 -10.34694 -10.34096 -10.33799
 Alpha  occ. eigenvalues --  -10.33785 -10.33733 -10.33465 -10.33259 -10.33234
 Alpha  occ. eigenvalues --  -10.33122 -10.32543 -10.32533 -10.32337 -10.32265
 Alpha  occ. eigenvalues --  -10.32138 -10.32100  -6.80298  -4.95322  -4.94996
 Alpha  occ. eigenvalues --   -4.94980  -1.17020  -1.13559  -1.12397  -0.99206
 Alpha  occ. eigenvalues --   -0.98276  -0.96779  -0.93814  -0.91382  -0.91102
 Alpha  occ. eigenvalues --   -0.90058  -0.87412  -0.87119  -0.86747  -0.83371
 Alpha  occ. eigenvalues --   -0.80243  -0.77872  -0.76910  -0.76002  -0.74864
 Alpha  occ. eigenvalues --   -0.72550  -0.72186  -0.71523  -0.70111  -0.69752
 Alpha  occ. eigenvalues --   -0.68528  -0.63944  -0.63239  -0.62029  -0.61796
 Alpha  occ. eigenvalues --   -0.60925  -0.59156  -0.58607  -0.57988  -0.57240
 Alpha  occ. eigenvalues --   -0.56563  -0.56249  -0.55916  -0.55853  -0.55353
 Alpha  occ. eigenvalues --   -0.55274  -0.55111  -0.54813  -0.53799  -0.53709
 Alpha  occ. eigenvalues --   -0.52528  -0.52002  -0.51128  -0.49853  -0.48757
 Alpha  occ. eigenvalues --   -0.48219  -0.47917  -0.47228  -0.45892  -0.45618
 Alpha  occ. eigenvalues --   -0.44752  -0.44393  -0.43361  -0.43175  -0.40144
 Alpha  occ. eigenvalues --   -0.39630  -0.38677  -0.37476  -0.35699  -0.35645
 Alpha  occ. eigenvalues --   -0.35183  -0.34857  -0.30049
 Alpha virt. eigenvalues --   -0.03481   0.00489   0.01719   0.01901   0.02069
 Alpha virt. eigenvalues --    0.03213   0.03924   0.04510   0.04837   0.05724
 Alpha virt. eigenvalues --    0.06237   0.06504   0.07136   0.07794   0.08205

 Mulliken charges:
               1
     1  C   -0.683534
     2  C    0.168858
     3  C   -0.711494
     4  C    0.785681
     5  C   -0.617409
     6  H    0.261173
     7  H    0.270933
     8  H    0.273304
     9  H    0.261360
    10  P    0.504768
    11  C   -0.443349
    12  C    1.004153
    13  C    0.609641
    14  C   -0.999658
    15  H    0.305327
    16  C   -1.027335
    17  H    0.284076
    18  H    0.303514
    19  H    0.301652
    20  C   -0.722974
    21  C    0.822354
    22  C    0.876458
    23  C   -0.764531
    24  H    0.284063
    25  C   -0.862949
    26  H    0.293807
    27  H    0.304881
    28  H    0.304932
    29  C   -0.108137
    30  H    0.260904
    31  O   -0.359424
    32  C   -0.324537
    33  C    0.084206
    34  C    0.398928
    35  C   -0.652685
    36  H    0.281188
    37  C   -0.586437
    38  H    0.277425
    39  H    0.258686
    40  H    0.260572
    41  C   -0.452122
    42  H    0.262607
    43  H    0.255380
    44  H    0.261132
    45  C   -0.174181
    46  H    0.260725
    47  N   -0.334965
    48  N   -0.374893
    49  H    0.562765
    50  H    0.555161
 Sum of Mulliken charges =   2.00000

 Dipole moment (field-independent basis, Debye):
    X=              7.4606    Y=            -13.8343    Z=              5.0378  Tot=             16.5054
 Quadrupole moment (field-independent basis, Debye-Ang):
   XX=            -96.7051   YY=            -93.2163   ZZ=            -84.5769
   XY=            -11.9803   XZ=              1.3947   YZ=              0.4544

  Exact polarizability: 444.988  34.534 412.168 -36.075  40.228 456.573
 Approx polarizability: 339.839  28.193 316.422 -23.633  23.246 341.442

 ******    1 imaginary frequencies (negative Signs) ******

                      1                      2                      3
                      A                      A                      A
 Frequencies --   -397.2874                32.1251                45.4111
 Red. masses --      9.8433                 5.2494                 5.0146
 Frc consts  --      0.9154                 0.0032                 0.0061
 IR Inten    --    995.7798                 1.6568                 2.4040

                      4                      5                      6
                      A                      A                      A
 Frequencies --     52.2719                60.6058                67.9977
 Red. masses --      4.3408                 5.0703                 4.3650
 Frc consts  --      0.0070                 0.0110                 0.0119
 IR Inten    --      2.9543                 2.0048                 1.0214

                      7                      8                      9
                      A                      A                      A
 Frequencies --     72.6202                82.6685               108.7506
 Red. masses --      3.9998                 4.7670                 3.5837
 Frc consts  --      0.0124                 0.0192                 0.0250
 IR Inten    --      1.3042                 5.3857                 4.6572

                     10                     11                     12
                      A                      A                      A
 Frequencies --    114.3340               122.5783               138.2530
 Red. masses --      3.8288                 4.2525                 3.2985
 Frc consts  --      0.0295                 0.0376                 0.0371
 IR Inten    --      1.8192                 8.5948                 7.2905

                     13                     14                     15
                      A                      A                      A
 Frequencies --    158.9741               182.2187               197.1983
 Red. masses --      3.5635                 4.0052                 3.0220
 Frc consts  --      0.0531                 0.0784                 0.0692
 IR Inten    --      7.5357                 6.4185                 2.5955

                     16                     17                     18
                      A                      A                      A
 Frequencies --    216.6644               237.2054               246.2131
 Red. masses --      3.1302                 4.4088                 2.3071
 Frc consts  --      0.0866                 0.1462                 0.0824
 IR Inten    --      4.0842                 3.7063                 4.3394

                     19                     20                     21
                      A                      A                      A
 Frequencies --    257.3039               260.3369               277.7265
 Red. masses --      4.8040                 3.8616                 4.2095
 Frc consts  --      0.1874                 0.1542                 0.1913
 IR Inten    --      5.2203                 3.3156                10.9927

                     22                     23                     24
                      A                      A                      A
 Frequencies --    290.4669               322.2794               333.5184
 Red. masses --      5.2504                 4.7435                 4.5372
 Frc consts  --      0.2610                 0.2903                 0.2974
 IR Inten    --      2.9824                26.1152                15.2908

                     25                     26                     27
                      A                      A                      A
 Frequencies --    366.7436               391.6697               418.9555
 Red. masses --      4.0412                 2.7109                 2.9057
 Frc consts  --      0.3202                 0.2450                 0.3005
 IR Inten    --     41.9780                 0.5562                 1.0172

                     28                     29                     30
                      A                      A                      A
 Frequencies --    431.0359               443.5230               473.2696
 Red. masses --      3.0290                 3.0607                 4.5529
 Frc consts  --      0.3316                 0.3547                 0.6008
 IR Inten    --      1.8006                 1.6835                 3.3354

                     31                     32                     33
                      A                      A                      A
 Frequencies --    492.0394               513.1341               543.5731
 Red. masses --      3.5525                 3.9549                 6.4829
 Frc consts  --      0.5067                 0.6135                 1.1286
 IR Inten    --     34.3089                43.8242               203.1725

                     34                     35                     36
                      A                      A                      A
 Frequencies --    556.2581               632.1987               634.8430
 Red. masses --      8.6543                 6.3820                 5.9233
 Frc consts  --      1.5777                 1.5028                 1.4065
 IR Inten    --    156.8862                 0.2450                 4.2169

                     37                     38                     39
                      A                      A                      A
 Frequencies --    636.7205               646.6587               657.9068
 Red. masses --      6.2122                 3.2142                 6.2210
 Frc consts  --      1.4839                 0.7919                 1.5865
 IR Inten    --      6.9798                69.3074                 3.7653

                     40                     41                     42
                      A                      A                      A
 Frequencies --    661.2197               690.9014               705.7944
 Red. masses --      5.7789                 3.8561                 1.5278
 Frc consts  --      1.4886                 1.0845                 0.4484
 IR Inten    --      6.7304                85.6837               160.1214

                     43                     44                     45
                      A                      A                      A
 Frequencies --    716.9970               723.9539               726.5040
 Red. masses --      1.9911                 2.5161                 2.4161
 Frc consts  --      0.6031                 0.7770                 0.7514
 IR Inten    --    155.6515                41.2560                41.3813

                     46                     47                     48
                      A                      A                      A
 Frequencies --    740.7278               751.1889               756.3886
 Red. masses --      4.5430                 1.5854                 5.5728
 Frc consts  --      1.4686                 0.5271                 1.8785
 IR Inten    --    227.9461               115.1845               208.4869

                     49                     50                     51
                      A                      A                      A
 Frequencies --    759.7200               775.2918               779.0441
 Red. masses --      3.1185                 1.7519                 1.7415
 Frc consts  --      1.0605                 0.6204                 0.6227
 IR Inten    --    142.4557                11.7629                13.3939

                     52                     53                     54
                      A                      A                      A
 Frequencies --    826.1563               841.3057               882.1325
 Red. masses --      1.4828                 1.2596                 1.2495
 Frc consts  --      0.5963                 0.5253                 0.5729
 IR Inten    --    123.6377                 0.0955                 0.5602

                     55                     56                     57
                      A                      A                      A
 Frequencies --    886.5636               892.3777               893.5989
 Red. masses --      1.3249                 1.2509                 1.2655
 Frc consts  --      0.6136                 0.5869                 0.5954
 IR Inten    --      7.7135                 1.3405                 2.1336

                     58                     59                     60
                      A                      A                      A
 Frequencies --    975.0508               991.3957              1001.8033
 Red. masses --      1.3313                 1.3287                 1.3570
 Frc consts  --      0.7457                 0.7695                 0.8024
 IR Inten    --      2.0910                 1.1902                 3.8730

                     61                     62                     63
                      A                      A                      A
 Frequencies --   1005.1606              1009.0874              1016.6424
 Red. masses --      1.3596                 4.0046                 1.3827
 Frc consts  --      0.8093                 2.4025                 0.8420
 IR Inten    --      0.3247                57.2275                 3.3335

                     64                     65                     66
                      A                      A                      A
 Frequencies --   1021.3122              1024.7110              1025.6654
 Red. masses --      5.4812                 3.0284                 1.4783
 Frc consts  --      3.3686                 1.8736                 0.9163
 IR Inten    --     12.5067                 4.5319                 0.1817

                     67                     68                     69
                      A                      A                      A
 Frequencies --   1027.9566              1032.4962              1035.9396
 Red. masses --      1.6162                 5.6336                 1.3689
 Frc consts  --      1.0062                 3.5385                 0.8655
 IR Inten    --      7.5954                 1.2894                 1.4852

                     70                     71                     72
                      A                      A                      A
 Frequencies --   1048.4144              1052.5283              1053.0094
 Red. masses --      1.3184                 1.3267                 5.7415
 Frc consts  --      0.8538                 0.8660                 3.7509
 IR Inten    --      0.4349                 2.4051                 5.6238

                     73                     74                     75
                      A                      A                      A
 Frequencies --   1065.7581              1067.8301              1085.0730
 Red. masses --      3.0799                 2.6128                 6.3237
 Frc consts  --      2.0611                 1.7553                 4.3867
 IR Inten    --      1.5932                 0.5569               420.0460

                     76                     77                     78
                      A                      A                      A
 Frequencies --   1087.5997              1102.1188              1128.5516
 Red. masses --      2.5880                 1.9141                 1.7398
 Frc consts  --      1.8036                 1.3698                 1.3056
 IR Inten    --    137.4274                13.6776                 9.2366

                     79                     80                     81
                      A                      A                      A
 Frequencies --   1134.5021              1137.7898              1138.7541
 Red. masses --      1.9286                 2.1429                 1.6767
 Frc consts  --      1.4626                 1.6345                 1.2811
 IR Inten    --     56.1344                44.2583                 3.7692

                     82                     83                     84
                      A                      A                      A
 Frequencies --   1145.6643              1153.7408              1173.6657
 Red. masses --      2.2809                 2.6693                 3.4895
 Frc consts  --      1.7639                 2.0934                 2.8320
 IR Inten    --     47.0628                86.5193                91.8286

                     85                     86                     87
                      A                      A                      A
 Frequencies --   1194.0585              1196.3257              1198.3444
 Red. masses --      1.1035                 1.2440                 1.1030
 Frc consts  --      0.9270                 1.0490                 0.9332
 IR Inten    --      1.6982                 2.6076                 0.9329

                     88                     89                     90
                      A                      A                      A
 Frequencies --   1223.8190              1234.5929              1240.6552
 Red. masses --      1.3357                 1.1475                 1.1812
 Frc consts  --      1.1787                 1.0305                 1.0712
 IR Inten    --     43.9190                13.6025                16.8538

                     91                     92                     93
                      A                      A                      A
 Frequencies --   1242.6600              1258.9204              1289.6809
 Red. masses --      1.1589                 1.1711                 1.5200
 Frc consts  --      1.0544                 1.0935                 1.4896
 IR Inten    --      2.2815                43.3339                11.6964

                     94                     95                     96
                      A                      A                      A
 Frequencies --   1297.5110              1329.0361              1337.8219
 Red. masses --      1.2698                 2.2366                 2.1402
 Frc consts  --      1.2596                 2.3276                 2.2569
 IR Inten    --      1.8511                 5.7828                 5.6533

                     97                     98                     99
                      A                      A                      A
 Frequencies --   1342.0050              1343.0608              1384.8500
 Red. masses --      2.7933                 2.3754                 1.4436
 Frc consts  --      2.9640                 2.5245                 1.6312
 IR Inten    --      4.7859                 6.0640                 8.1816

                    100                    101                    102
                      A                      A                      A
 Frequencies --   1394.3143              1400.6322              1447.8234
 Red. masses --      1.3572                 2.4651                 1.9212
 Frc consts  --      1.5546                 2.8493                 2.3728
 IR Inten    --     10.6646                15.0372                 7.6483

                    103                    104                    105
                      A                      A                      A
 Frequencies --   1487.5513              1492.7777              1506.5598
 Red. masses --      2.1803                 2.2105                 1.0773
 Frc consts  --      2.8425                 2.9023                 1.4407
 IR Inten    --     33.4400                51.4086                15.3971

                    106                    107                    108
                      A                      A                      A
 Frequencies --   1515.2612              1516.8138              1524.9740
 Red. masses --      1.1055                 1.8319                 1.9912
 Frc consts  --      1.4955                 2.4832                 2.7283
 IR Inten    --      4.0599               147.6868                82.4015

                    109                    110                    111
                      A                      A                      A
 Frequencies --   1532.0881              1546.0262              1546.8678
 Red. masses --      1.0467                 2.0418                 2.5135
 Frc consts  --      1.4475                 2.8754                 3.5435
 IR Inten    --     13.8190                 6.4543                51.6776

                    112                    113                    114
                      A                      A                      A
 Frequencies --   1551.5156              1552.6848              1647.9004
 Red. masses --      2.0819                 3.4361                 2.3233
 Frc consts  --      2.9527                 4.8807                 3.7173
 IR Inten    --     18.1613                14.1787               126.8485

                    115                    116                    117
                      A                      A                      A
 Frequencies --   1657.0515              1660.1481              1667.3387
 Red. masses --      5.3092                 5.2897                 3.5113
 Frc consts  --      8.5893                 8.5897                 5.7513
 IR Inten    --      4.1923                 1.0679                70.6301

                    118                    119                    120
                      A                      A                      A
 Frequencies --   1675.5462              1676.4490              1676.7290
 Red. masses --      5.5157                 5.0946                 5.0072
 Frc consts  --      9.1235                 8.4360                 8.2941
 IR Inten    --     12.9453               192.3735               354.5318

                    121                    122                    123
                      A                      A                      A
 Frequencies --   1711.2916              3082.5415              3172.3778
 Red. masses --      5.0804                 1.0298                 1.1085
 Frc consts  --      8.7658                 5.7650                 6.5727
 IR Inten    --    478.3503                55.7380                27.8683

                    124                    125                    126
                      A                      A                      A
 Frequencies --   3195.7129              3216.0404              3223.3086
 Red. masses --      1.1069                 1.0906                 1.0879
 Frc consts  --      6.6602                 6.6460                 6.6596
 IR Inten    --     17.5127                 8.6331                 0.5042

                    127                    128                    129
                      A                      A                      A
 Frequencies --   3225.8048              3232.3833              3232.7353
 Red. masses --      1.0879                 1.0911                 1.0918
 Frc consts  --      6.6699                 6.7169                 6.7225
 IR Inten    --      0.4663                13.2270                10.4270

                    130                    131                    132
                      A                      A                      A
 Frequencies --   3235.2490              3242.1585              3244.4800
 Red. masses --      1.0917                 1.0969                 1.0968
 Frc consts  --      6.7326                 6.7931                 6.8025
 IR Inten    --      9.4604                17.9021                15.0714

                    133                    134                    135
                      A                      A                      A
 Frequencies --   3260.3974              3261.2739              3262.9335
 Red. masses --      1.0936                 1.0916                 1.0939
 Frc consts  --      6.8491                 6.8408                 6.8617
 IR Inten    --      3.8564                 4.7581                 2.0769

                    136                    137                    138
                      A                      A                      A
 Frequencies --   3263.4418              3269.5998              3282.0877
 Red. masses --      1.0939                 1.0926                 1.0973
 Frc consts  --      6.8642                 6.8818                 6.9643
 IR Inten    --      3.0898                 3.7818                 1.3690

                    139                    140                    141
                      A                      A                      A
 Frequencies --   3284.3266              3285.7309              3286.7280
 Red. masses --      1.0920                 1.0976                 1.0986
 Frc consts  --      6.9403                 6.9818                 6.9923
 IR Inten    --      2.5610                 1.0056                 1.2858

                    142                    143                    144
                      A                      A                      A
 Frequencies --   3297.9714              3608.4007              3638.8430
 Red. masses --      1.0971                 1.0814                 1.0809
 Frc consts  --      7.0305                 8.2956                 8.4328
 IR Inten    --      3.5122               377.1180               453.7828

 - Thermochemistry -
 -------------------
 Temperature   298.150 Kelvin.  Pressure   1.00000 Atm.
 Atom     1 has atomic number  6 and mass  12.00000

 Molecular mass:   374.15480 amu.
 Principal axes and moments of inertia in atomic units:
                           1         2         3
     Eigenvalues --  9232.190919565.14794**********
           X            0.99205   0.12574   0.00474
           Y           -0.12581   0.99186   0.01959
           Z           -0.00224  -0.02003   0.99980
 This molecule is an asymmetric top.
 Rotational symmetry number  1.
 Warning -- assumption of classical behavior for rotation
           may cause significant error
 Rotational temperatures (Kelvin)      0.00938     0.00906     0.00807
 Rotational constants (GHZ):           0.19548     0.18868     0.16823
    1 imaginary frequencies ignored.
 Zero-point vibrational energy    1096225.3 (Joules/Mol)
                                  262.00413 (Kcal/Mol)
 Warning -- explicit consideration of  33 degrees of freedom as
           vibrations may cause significant error
 Vibrational temperatures:     46.22    65.34    75.21    87.20    97.83
          (Kelvin)            104.48   118.94   156.47   164.50   176.36
                              198.92   228.73   262.17   283.72   311.73
                              341.29   354.25   370.20   374.57   399.59
                              417.92   463.69   479.86   527.66   563.53
                              602.78   620.16   638.13   680.93   707.93
                              738.29   782.08   800.33   909.59   913.40
                              916.10   930.40   946.58   951.35   994.05
                             1015.48  1031.60  1041.61  1045.28  1065.74
                             1080.79  1088.27  1093.07  1115.47  1120.87
                             1188.65  1210.45  1269.19  1275.57  1283.93
                             1285.69  1402.88  1426.40  1441.37  1446.20
                             1451.85  1462.72  1469.44  1474.33  1475.70
                             1479.00  1485.53  1490.49  1508.43  1514.35
                             1515.05  1533.39  1536.37  1561.18  1564.81
                             1585.70  1623.73  1632.30  1637.03  1638.41
                             1648.36  1659.98  1688.64  1717.98  1721.25
                             1724.15  1760.80  1776.30  1785.03  1787.91
                             1811.31  1855.56  1866.83  1912.19  1924.83
                             1930.85  1932.36  1992.49  2006.11  2015.20
                             2083.09  2140.25  2147.77  2167.60  2180.12
                             2182.36  2194.10  2204.33  2224.39  2225.60
                             2232.28  2233.97  2370.96  2384.13  2388.58
                             2398.93  2410.74  2412.04  2412.44  2462.17
                             4435.09  4564.34  4597.92  4627.16  4637.62
                             4641.21  4650.68  4651.19  4654.80  4664.74
                             4668.08  4690.98  4692.25  4694.63  4695.36
                             4704.22  4722.19  4725.41  4727.43  4728.87
                             4745.05  5191.68  5235.48

 Zero-point correction=                           0.417530 (Hartree/Particle)
 Thermal correction to Energy=                    0.440687
 Thermal correction to Enthalpy=                  0.441631
 Thermal correction to Gibbs Free Energy=         0.364996
 Sum of electronic and zero-point Energies=          -1415.264610
 Sum of electronic and thermal Energies=             -1415.241453
 Sum of electronic and thermal Enthalpies=           -1415.240509
 Sum of electronic and thermal Free Energies=        -1415.317144

                     E (Thermal)             CV                S
                      KCal/Mol        Cal/Mol-Kelvin    Cal/Mol-Kelvin
 Total                  276.535             91.503            161.292
 Electronic               0.000              0.000              0.000
 Translational            0.889              2.981             43.651
 Rotational               0.889              2.981             35.203
 Vibrational            274.758             85.541             82.437
 Vibration     1          0.594              1.983              5.694
 Vibration     2          0.595              1.979              5.008
 Vibration     3          0.596              1.977              4.730
 Vibration     4          0.597              1.973              4.437
 Vibration     5          0.598              1.969              4.210
 Vibration     6          0.599              1.967              4.081
 Vibration     7          0.600              1.961              3.827
 Vibration     8          0.606              1.942              3.291
 Vibration     9          0.607              1.938              3.194
 Vibration    10          0.610              1.930              3.059
 Vibration    11          0.614              1.915              2.828
 Vibration    12          0.621              1.893              2.562
 Vibration    13          0.630              1.864              2.306
 Vibration    14          0.637              1.844              2.159
 Vibration    15          0.646              1.816              1.987
 Vibration    16          0.656              1.784              1.824
 Vibration    17          0.661              1.769              1.758
 Vibration    18          0.667              1.750              1.680
 Vibration    19          0.668              1.745              1.660
 Vibration    20          0.679              1.715              1.548
 Vibration    21          0.686              1.691              1.471
 Vibration    22          0.707              1.631              1.299
 Vibration    23          0.715              1.609              1.243
 Vibration    24          0.740              1.541              1.093
 Vibration    25          0.759              1.488              0.994
 Vibration    26          0.782              1.429              0.896
 Vibration    27          0.792              1.403              0.855
 Vibration    28          0.803              1.375              0.816
 Vibration    29          0.830              1.309              0.728
 Vibration    30          0.848              1.268              0.678
 Vibration    31          0.868              1.221              0.626
 Vibration    32          0.899              1.154              0.558
 Vibration    33          0.912              1.126              0.531

 Optimization completed.
    -- Stationary point found.
 Normal termination of Gaussian 16 at Wed Mar 21 01:00:38 2018.
