 Gaussian 16, Revision A.03,
 Gaussian 16:  ES64L-G16RevA.03 25-Dec-2016

 ----------------------------------------------------------------------
 # freq=noraman wb97xd/6-31+g(d) scrf=(solvent=ethanol,smd) geom=connec
 tivity
 ----------------------------------------------------------------------

 -------------------
 Title Card Required
 -------------------
 Symbolic Z-matrix:
 Charge =  2 Multiplicity = 1

                         Standard orientation:
 ---------------------------------------------------------------------
 Center     Atomic      Atomic             Coordinates (Angstroms)
 Number     Number       Type             X           Y           Z
 ---------------------------------------------------------------------
      1          6           0        1.217703    4.129264   -0.454185
      2          6           0        0.784513    2.889606   -0.916237
      3          6           0        0.298161    1.932949   -0.013996
      4          6           0        0.243563    2.238939    1.351586
      5          6           0        0.654259    3.487924    1.802915
      6          1           0        1.606303    4.856678   -1.160621
      7          1           0        0.835316    2.670575   -1.977764
      8          1           0       -0.090643    1.504559    2.074530
      9          1           0        0.600836    3.716172    2.863217
     10         15           0       -0.253483    0.357099   -0.727852
     11          6           0       -1.900522   -0.253133   -0.171447
     12          6           0       -2.623485   -1.067818   -1.047627
     13          6           0       -2.486094    0.144460    1.031021
     14          6           0       -3.884581   -1.499358   -0.684889
     15          1           0       -2.232565   -1.364208   -2.014215
     16          6           0       -3.756825   -0.295814    1.341082
     17          1           0       -1.983201    0.783853    1.743075
     18          1           0       -4.500089   -2.141447   -1.301787
     19          1           0       -4.277893   -0.029852    2.251987
     20          6           0        0.731983   -0.853537    0.947324
     21          6           0        0.015839   -1.923738    1.490256
     22          6           0        1.829510   -0.357285    1.653196
     23          6           0        0.346987   -2.443253    2.741091
     24          1           0       -0.806918   -2.379739    0.943477
     25          6           0        2.168778   -0.870926    2.902752
     26          1           0        2.438501    0.439835    1.231854
     27          1           0       -0.229109   -3.267925    3.152967
     28          1           0        3.020979   -0.463727    3.440890
     29          6           0        1.145936    4.433050    0.903063
     30          1           0        1.476234    5.403861    1.261520
     31          8           0       -0.703258    0.827739   -2.239148
     32          6           0        0.990094   -0.824714   -1.093365
     33          6           0        2.332848   -0.350597   -1.353554
     34          6           0        0.708584   -2.167595   -1.548432
     35          6           0        3.306587   -1.237367   -1.684830
     36          1           0        2.592767    0.695871   -1.249012
     37          6           0        1.736353   -2.994806   -1.870467
     38          1           0       -0.299319   -2.559396   -1.579829
     39          1           0        4.336977   -0.942077   -1.842574
     40          1           0        1.585029   -4.027127   -2.162104
     41          6           0       -1.775260    1.746953   -2.502588
     42          1           0       -1.446145    2.405414   -3.308781
     43          1           0       -2.656907    1.183911   -2.821844
     44          1           0       -2.024738    2.349710   -1.623319
     45          7           0       -4.403012   -1.103708    0.486438
     46          1           0       -5.339919   -1.422299    0.733110
     47          6           0        1.421830   -1.912767    3.454306
     48          1           0        1.686870   -2.319906    4.426371
     49          7           0        3.022023   -2.552070   -1.879154
     50          1           0        3.762277   -3.183307   -2.163025
 ---------------------------------------------------------------------

 SCF Done:  E(RwB97XD) =  -1415.67038569     A.U. after   17 cycles

 The electronic state is 1-A.
 Alpha  occ. eigenvalues --  -77.39126 -19.31406 -14.59137 -14.53642 -10.40801
 Alpha  occ. eigenvalues --  -10.40688 -10.39267 -10.39067 -10.37390 -10.37381
 Alpha  occ. eigenvalues --  -10.36706 -10.36633 -10.35401 -10.34805 -10.33299
 Alpha  occ. eigenvalues --  -10.33293 -10.33134 -10.33007 -10.32628 -10.32266
 Alpha  occ. eigenvalues --  -10.32193 -10.32189 -10.31690 -10.31518 -10.31497
 Alpha  occ. eigenvalues --  -10.31353 -10.31289  -6.80495  -4.95491  -4.95267
 Alpha  occ. eigenvalues --   -4.95168  -1.16430  -1.15761  -1.11035  -0.99295
 Alpha  occ. eigenvalues --   -0.98107  -0.97100  -0.95299  -0.93575  -0.90264
 Alpha  occ. eigenvalues --   -0.89016  -0.87041  -0.85777  -0.85424  -0.84250
 Alpha  occ. eigenvalues --   -0.80338  -0.80101  -0.78736  -0.76346  -0.73931
 Alpha  occ. eigenvalues --   -0.72411  -0.71879  -0.70527  -0.69856  -0.69136
 Alpha  occ. eigenvalues --   -0.68599  -0.64994  -0.63307  -0.62890  -0.62047
 Alpha  occ. eigenvalues --   -0.60942  -0.60098  -0.59800  -0.58012  -0.57686
 Alpha  occ. eigenvalues --   -0.57548  -0.56890  -0.56168  -0.55246  -0.55013
 Alpha  occ. eigenvalues --   -0.54697  -0.54237  -0.54147  -0.53603  -0.53180
 Alpha  occ. eigenvalues --   -0.52325  -0.51371  -0.51033  -0.50427  -0.49241
 Alpha  occ. eigenvalues --   -0.48305  -0.47723  -0.47167  -0.46812  -0.45008
 Alpha  occ. eigenvalues --   -0.44292  -0.43745  -0.42999  -0.42718  -0.41995
 Alpha  occ. eigenvalues --   -0.39846  -0.39687  -0.37649  -0.36230  -0.35353
 Alpha  occ. eigenvalues --   -0.34029  -0.33531  -0.28973
 Alpha virt. eigenvalues --   -0.04932  -0.01225   0.00312   0.01306   0.03058
 Alpha virt. eigenvalues --    0.03705   0.04676   0.05548   0.06007   0.06220
 Alpha virt. eigenvalues --    0.06364   0.06684   0.07510   0.07643   0.08077

 Mulliken charges:
               1
     1  C   -0.481147
     2  C   -0.057248
     3  C   -0.366387
     4  C    0.188298
     5  C   -0.434695
     6  H    0.261234
     7  H    0.281641
     8  H    0.270978
     9  H    0.260091
    10  P    0.594128
    11  C   -0.985929
    12  C    1.117126
    13  C    1.273455
    14  C   -0.980956
    15  H    0.325499
    16  C   -1.271319
    17  H    0.304067
    18  H    0.327427
    19  H    0.326045
    20  C   -0.255451
    21  C   -0.195607
    22  C    0.354740
    23  C   -0.553629
    24  H    0.261095
    25  C   -0.492647
    26  H    0.260396
    27  H    0.247838
    28  H    0.247532
    29  C   -0.210088
    30  H    0.261831
    31  O   -0.462642
    32  C    0.000173
    33  C    0.655641
    34  C    0.589468
    35  C   -0.835373
    36  H    0.294774
    37  C   -0.828520
    38  H    0.283206
    39  H    0.293870
    40  H    0.293177
    41  C   -0.424743
    42  H    0.256180
    43  H    0.253831
    44  H    0.259792
    45  N   -0.279365
    46  H    0.578024
    47  C   -0.192152
    48  H    0.250450
    49  N   -0.410051
    50  H    0.545940
 Sum of Mulliken charges =   2.00000

 Dipole moment (field-independent basis, Debye):
    X=            -12.0987    Y=             -6.6175    Z=             -2.4433  Tot=             14.0050
 Quadrupole moment (field-independent basis, Debye-Ang):
   XX=            -33.4924   YY=           -102.0905   ZZ=           -126.9039
   XY=             10.7029   XZ=            -19.4507   YZ=             14.4801

  Exact polarizability: 420.900  36.265 426.207 -28.417  25.978 480.344
 Approx polarizability: 321.485  31.374 324.195 -15.850  17.461 355.980

 ******    1 imaginary frequencies (negative Signs) ******

                      1                      2                      3
                      A                      A                      A
 Frequencies --   -523.1226                26.5965                49.0821
 Red. masses --     10.1418                 4.9639                 5.1045
 Frc consts  --      1.6352                 0.0021                 0.0072
 IR Inten    --   1575.9783                 4.0456                 4.9665

                      4                      5                      6
                      A                      A                      A
 Frequencies --     51.0954                59.5965                68.4762
 Red. masses --      3.9831                 5.1236                 4.5951
 Frc consts  --      0.0061                 0.0107                 0.0127
 IR Inten    --      1.5138                 4.1406                 4.8309

                      7                      8                      9
                      A                      A                      A
 Frequencies --     82.9659                86.8159               103.7576
 Red. masses --      4.6605                 3.6341                 3.3724
 Frc consts  --      0.0189                 0.0161                 0.0214
 IR Inten    --      9.5030                 0.1766                 1.9927

                     10                     11                     12
                      A                      A                      A
 Frequencies --    112.6351               128.8421               136.4215
 Red. masses --      3.9701                 1.1128                 3.6003
 Frc consts  --      0.0297                 0.0109                 0.0395
 IR Inten    --      0.9141                 0.1626                 0.6755

                     13                     14                     15
                      A                      A                      A
 Frequencies --    157.4651               172.6213               198.8825
 Red. masses --      3.3218                 5.0801                 5.0887
 Frc consts  --      0.0485                 0.0892                 0.1186
 IR Inten    --      2.0080                21.9268                32.9475

                     16                     17                     18
                      A                      A                      A
 Frequencies --    209.5568               220.7161               247.9019
 Red. masses --      4.3294                 4.8958                 4.8588
 Frc consts  --      0.1120                 0.1405                 0.1759
 IR Inten    --      0.9899                 0.0289                15.9629

                     19                     20                     21
                      A                      A                      A
 Frequencies --    256.0587               261.8304               283.8639
 Red. masses --      6.0857                 4.9296                 4.5385
 Frc consts  --      0.2351                 0.1991                 0.2155
 IR Inten    --      8.0979                 3.0927                15.8191

                     22                     23                     24
                      A                      A                      A
 Frequencies --    291.7833               317.4061               340.4642
 Red. masses --      4.7183                 6.8598                 3.5047
 Frc consts  --      0.2367                 0.4072                 0.2394
 IR Inten    --      2.3266                19.0578                31.5395

                     25                     26                     27
                      A                      A                      A
 Frequencies --    386.5997               409.6528               411.2053
 Red. masses --      5.0125                 2.7988                 2.8022
 Frc consts  --      0.4414                 0.2767                 0.2792
 IR Inten    --     24.5364                 1.0618                 0.6082

                     28                     29                     30
                      A                      A                      A
 Frequencies --    435.9465               452.1991               467.4664
 Red. masses --      3.0883                 3.1535                 4.0365
 Frc consts  --      0.3458                 0.3799                 0.5197
 IR Inten    --      1.3164                 0.4838                 2.5188

                     31                     32                     33
                      A                      A                      A
 Frequencies --    487.4796               515.5055               546.3485
 Red. masses --      3.6769                 4.7873                 9.1499
 Frc consts  --      0.5148                 0.7496                 1.6092
 IR Inten    --     20.4210                55.8371               171.6408

                     34                     35                     36
                      A                      A                      A
 Frequencies --    558.6668               623.1717               627.6106
 Red. masses --      4.7569                 1.9391                 6.3564
 Frc consts  --      0.8747                 0.4437                 1.4752
 IR Inten    --    153.5064               196.3029                 0.6682

                     37                     38                     39
                      A                      A                      A
 Frequencies --    633.4101               642.3027               660.0599
 Red. masses --      6.3839                 6.6635                 6.1587
 Frc consts  --      1.5091                 1.6197                 1.5809
 IR Inten    --      4.7720                 5.3645                 4.4433

                     40                     41                     42
                      A                      A                      A
 Frequencies --    662.5418               677.3471               702.9951
 Red. masses --      6.1780                 2.7372                 3.3454
 Frc consts  --      1.5978                 0.7399                 0.9741
 IR Inten    --     12.7980               143.4711               158.1872

                     43                     44                     45
                      A                      A                      A
 Frequencies --    710.5226               716.8298               724.7221
 Red. masses --      3.8705                 1.8716                 2.3681
 Frc consts  --      1.1513                 0.5666                 0.7328
 IR Inten    --     61.9203               134.3768                72.2018

                     46                     47                     48
                      A                      A                      A
 Frequencies --    743.3479               754.9199               757.7374
 Red. masses --      4.5626                 3.2684                 2.8922
 Frc consts  --      1.4854                 1.0974                 0.9784
 IR Inten    --     34.8793                59.4639               104.5581

                     49                     50                     51
                      A                      A                      A
 Frequencies --    761.7944               772.9548               783.1716
 Red. masses --      1.5135                 1.4938                 1.7543
 Frc consts  --      0.5175                 0.5258                 0.6340
 IR Inten    --    322.2889                13.8834                16.0673

                     52                     53                     54
                      A                      A                      A
 Frequencies --    795.6586               816.8059               875.6944
 Red. masses --      1.8059                 1.2820                 1.2508
 Frc consts  --      0.6736                 0.5039                 0.5651
 IR Inten    --    163.6458                27.2286                 0.6870

                     55                     56                     57
                      A                      A                      A
 Frequencies --    891.9374               893.3498               935.3261
 Red. masses --      1.2617                 1.2404                 1.3267
 Frc consts  --      0.5914                 0.5833                 0.6838
 IR Inten    --      0.9247                 1.6355                 2.8117

                     58                     59                     60
                      A                      A                      A
 Frequencies --    963.0322               990.7591               992.6632
 Red. masses --      1.3636                 1.3611                 1.3206
 Frc consts  --      0.7451                 0.7872                 0.7667
 IR Inten    --      5.9485                 3.0505                 2.7161

                     61                     62                     63
                      A                      A                      A
 Frequencies --    997.4753              1001.9647              1008.7637
 Red. masses --      1.3526                 4.3615                 5.3167
 Frc consts  --      0.7929                 2.5798                 3.1877
 IR Inten    --      3.3170                90.4499                 1.7992

                     64                     65                     66
                      A                      A                      A
 Frequencies --   1017.2661              1022.1170              1024.0614
 Red. masses --      1.4467                 2.2720                 2.1644
 Frc consts  --      0.8820                 1.3985                 1.3374
 IR Inten    --      0.5334                 3.0714                 1.9050

                     67                     68                     69
                      A                      A                      A
 Frequencies --   1030.4930              1032.6705              1032.9477
 Red. masses --      1.5322                 1.4272                 4.0206
 Frc consts  --      0.9587                 0.8967                 2.5276
 IR Inten    --      4.9934                 9.9407                38.5031

                     70                     71                     72
                      A                      A                      A
 Frequencies --   1034.0226              1042.6361              1049.7839
 Red. masses --      1.5232                 2.5444                 1.4390
 Frc consts  --      0.9596                 1.6297                 0.9344
 IR Inten    --      3.0028                 2.0824                 1.0231

                     73                     74                     75
                      A                      A                      A
 Frequencies --   1062.4190              1066.2054              1075.1129
 Red. masses --      7.1172                 3.0666                 2.2954
 Frc consts  --      4.7332                 2.0540                 1.5632
 IR Inten    --    515.3517                40.7694                42.0053

                     76                     77                     78
                      A                      A                      A
 Frequencies --   1077.9803              1105.6029              1123.5423
 Red. masses --      1.8227                 2.9838                 1.6525
 Frc consts  --      1.2479                 2.1489                 1.2291
 IR Inten    --      8.9721                12.5472                13.8295

                     79                     80                     81
                      A                      A                      A
 Frequencies --   1129.2743              1134.2132              1140.1177
 Red. masses --      1.8949                 2.3313                 1.8203
 Frc consts  --      1.4238                 1.7670                 1.3941
 IR Inten    --     19.0444                63.3055                 8.6139

                     82                     83                     84
                      A                      A                      A
 Frequencies --   1150.5427              1167.2967              1185.6504
 Red. masses --      2.4761                 1.7388                 5.1479
 Frc consts  --      1.9312                 1.3959                 4.2637
 IR Inten    --     66.5023                 7.8405                95.8034

                     85                     86                     87
                      A                      A                      A
 Frequencies --   1186.2680              1191.5150              1197.8234
 Red. masses --      1.1105                 1.2563                 1.1008
 Frc consts  --      0.9207                 1.0509                 0.9306
 IR Inten    --      1.2777                 2.0844                 0.8027

                     88                     89                     90
                      A                      A                      A
 Frequencies --   1219.4322              1225.7559              1233.5922
 Red. masses --      1.3739                 1.1493                 1.1450
 Frc consts  --      1.2037                 1.0174                 1.0266
 IR Inten    --     48.5291                 0.5685                 8.0226

                     91                     92                     93
                      A                      A                      A
 Frequencies --   1253.9050              1262.6201              1288.3192
 Red. masses --      1.1783                 1.1876                 1.1882
 Frc consts  --      1.0915                 1.1155                 1.1619
 IR Inten    --     28.1795                17.1951                 6.5359

                     94                     95                     96
                      A                      A                      A
 Frequencies --   1293.5972              1321.0625              1330.5885
 Red. masses --      1.7718                 1.7755                 3.7140
 Frc consts  --      1.7469                 1.8257                 3.8742
 IR Inten    --     46.1971                18.2531                 1.0652

                     97                     98                     99
                      A                      A                      A
 Frequencies --   1342.7364              1349.7279              1372.0049
 Red. masses --      3.3537                 2.1421                 1.4707
 Frc consts  --      3.5625                 2.2993                 1.6311
 IR Inten    --      0.1438                24.2555                 5.7929

                    100                    101                    102
                      A                      A                      A
 Frequencies --   1380.7265              1405.4133              1442.1447
 Red. masses --      1.5181                 1.5621                 1.7075
 Frc consts  --      1.7051                 1.8179                 2.0923
 IR Inten    --      5.8818                39.0369                20.9548

                    103                    104                    105
                      A                      A                      A
 Frequencies --   1481.0849              1491.8865              1503.9230
 Red. masses --      2.1334                 2.1734                 1.7621
 Frc consts  --      2.7573                 2.8501                 2.3482
 IR Inten    --     27.4189                34.1822               130.3145

                    106                    107                    108
                      A                      A                      A
 Frequencies --   1507.4388              1511.0775              1524.1845
 Red. masses --      1.1031                 1.0796                 1.0476
 Frc consts  --      1.4769                 1.4523                 1.4339
 IR Inten    --     11.2203                 9.8155                23.7567

                    109                    110                    111
                      A                      A                      A
 Frequencies --   1531.1017              1543.6944              1550.8950
 Red. masses --      1.9269                 2.0154                 3.0081
 Frc consts  --      2.6614                 2.8296                 4.2629
 IR Inten    --      5.4571                 7.7772                79.6246

                    112                    113                    114
                      A                      A                      A
 Frequencies --   1554.8723              1563.5405              1638.1544
 Red. masses --      3.1696                 2.0856                 2.4938
 Frc consts  --      4.5148                 3.0040                 3.9430
 IR Inten    --     36.9756                41.2033                67.5681

                    115                    116                    117
                      A                      A                      A
 Frequencies --   1651.4449              1654.4152              1658.4964
 Red. masses --      5.4875                 5.4230                 5.3930
 Frc consts  --      8.8177                 8.7454                 8.7399
 IR Inten    --      4.4044                 5.3032                 4.1310

                    118                    119                    120
                      A                      A                      A
 Frequencies --   1674.5172              1682.2165              1709.8404
 Red. masses --      5.5745                 3.8127                 5.1055
 Frc consts  --      9.2095                 6.3569                 8.7942
 IR Inten    --     19.7160                64.0967               852.3176

                    121                    122                    123
                      A                      A                      A
 Frequencies --   1718.2603              3078.2161              3165.7536
 Red. masses --      5.3794                 1.0303                 1.1078
 Frc consts  --      9.3576                 5.7522                 6.5415
 IR Inten    --     78.7647                58.8024                29.2306

                    124                    125                    126
                      A                      A                      A
 Frequencies --   3187.3123              3201.2708              3205.4907
 Red. masses --      1.1074                 1.0873                 1.0871
 Frc consts  --      6.6282                 6.5649                 6.5813
 IR Inten    --     24.5085                 2.8084                 5.1071

                    127                    128                    129
                      A                      A                      A
 Frequencies --   3216.2752              3222.9475              3224.6851
 Red. masses --      1.0905                 1.0947                 1.0880
 Frc consts  --      6.6460                 6.6994                 6.6660
 IR Inten    --      3.4820                43.8410                 1.0347

                    130                    131                    132
                      A                      A                      A
 Frequencies --   3235.2236              3235.9002              3242.5642
 Red. masses --      1.0913                 1.0987                 1.0953
 Frc consts  --      6.7296                 6.7780                 6.7849
 IR Inten    --      7.4299                43.1429                11.3127

                    133                    134                    135
                      A                      A                      A
 Frequencies --   3253.1482              3261.4660              3262.4756
 Red. masses --      1.0956                 1.0906                 1.0943
 Frc consts  --      6.8316                 6.8350                 6.8624
 IR Inten    --      9.7391                 2.1949                 2.0265

                    136                    137                    138
                      A                      A                      A
 Frequencies --   3273.5351              3276.5617              3282.4580
 Red. masses --      1.0913                 1.0927                 1.0988
 Frc consts  --      6.8903                 6.9119                 6.9751
 IR Inten    --      4.4655                 7.3896                 0.6796

                    139                    140                    141
                      A                      A                      A
 Frequencies --   3288.8725              3292.3627              3295.6920
 Red. masses --      1.0979                 1.0962                 1.0995
 Frc consts  --      6.9969                 7.0012                 7.0360
 IR Inten    --      1.6100                13.0042                10.3710

                    142                    143                    144
                      A                      A                      A
 Frequencies --   3314.4407              3575.5890              3646.9429
 Red. masses --      1.0945                 1.0819                 1.0806
 Frc consts  --      7.0841                 8.1496                 8.4680
 IR Inten    --     14.5475               388.8965               441.0386

 - Thermochemistry -
 -------------------
 Temperature   298.150 Kelvin.  Pressure   1.00000 Atm.
 Atom     1 has atomic number  6 and mass  12.00000

 Molecular mass:   374.15480 amu.
 Principal axes and moments of inertia in atomic units:
                           1         2         3
     Eigenvalues --  9085.043939307.52485**********
           X            0.99494   0.09996   0.01007
           Y           -0.09991   0.99498  -0.00545
           Z           -0.01057   0.00441   0.99993
 This molecule is an asymmetric top.
 Rotational symmetry number  1.
 Warning -- assumption of classical behavior for rotation
           may cause significant error
 Rotational temperatures (Kelvin)      0.00953     0.00931     0.00782
 Rotational constants (GHZ):           0.19865     0.19390     0.16288
    1 imaginary frequencies ignored.
 Zero-point vibrational energy    1094859.4 (Joules/Mol)
                                  261.67767 (Kcal/Mol)
 Warning -- explicit consideration of  33 degrees of freedom as
           vibrations may cause significant error
 Vibrational temperatures:     38.27    70.62    73.51    85.75    98.52
          (Kelvin)            119.37   124.91   149.28   162.06   185.38
                              196.28   226.56   248.36   286.15   301.51
                              317.56   356.68   368.41   376.72   408.42
                              419.81   456.68   489.85   556.23   589.40
                              591.63   627.23   650.61   672.58   701.37
                              741.70   786.07   803.80   896.61   902.99
                              911.34   924.13   949.68   953.25   974.55
                             1011.45  1022.28  1031.36  1042.71  1069.51
                             1086.16  1090.22  1096.05  1112.11  1126.81
                             1144.78  1175.20  1259.93  1283.30  1285.33
                             1345.73  1385.59  1425.48  1428.22  1435.14
                             1441.60  1451.39  1463.62  1470.60  1473.40
                             1482.65  1485.78  1486.18  1487.73  1500.12
                             1510.40  1528.58  1534.03  1546.85  1550.97
                             1590.72  1616.53  1624.77  1631.88  1640.38
                             1655.37  1679.48  1705.89  1706.78  1714.32
                             1723.40  1754.49  1763.59  1774.86  1804.09
                             1816.63  1853.60  1861.20  1900.71  1914.42
                             1931.90  1941.96  1974.01  1986.56  2022.08
                             2074.92  2130.95  2146.49  2163.81  2168.87
                             2174.10  2192.96  2202.91  2221.03  2231.39
                             2237.11  2249.59  2356.94  2376.06  2380.33
                             2386.21  2409.26  2420.33  2460.08  2472.19
                             4428.87  4554.81  4585.83  4605.91  4611.99
                             4627.50  4637.10  4639.60  4654.77  4655.74
                             4665.33  4680.55  4692.52  4693.97  4709.89
                             4714.24  4722.72  4731.95  4736.98  4741.77
                             4768.74  5144.48  5247.14

 Zero-point correction=                           0.417010 (Hartree/Particle)
 Thermal correction to Energy=                    0.440188
 Thermal correction to Enthalpy=                  0.441132
 Thermal correction to Gibbs Free Energy=         0.364420
 Sum of electronic and zero-point Energies=          -1415.253376
 Sum of electronic and thermal Energies=             -1415.230198
 Sum of electronic and thermal Enthalpies=           -1415.229254
 Sum of electronic and thermal Free Energies=        -1415.305965

                     E (Thermal)             CV                S
                      KCal/Mol        Cal/Mol-Kelvin    Cal/Mol-Kelvin
 Total                  276.222             91.674            161.453
 Electronic               0.000              0.000              0.000
 Translational            0.889              2.981             43.651
 Rotational               0.889              2.981             35.192
 Vibrational            274.444             85.713             82.609
 Vibration     1          0.593              1.984              6.068
 Vibration     2          0.595              1.978              4.854
 Vibration     3          0.595              1.977              4.775
 Vibration     4          0.597              1.974              4.471
 Vibration     5          0.598              1.969              4.197
 Vibration     6          0.600              1.961              3.819
 Vibration     7          0.601              1.958              3.731
 Vibration     8          0.605              1.946              3.382
 Vibration     9          0.607              1.939              3.223
 Vibration    10          0.611              1.924              2.963
 Vibration    11          0.614              1.917              2.853
 Vibration    12          0.621              1.894              2.580
 Vibration    13          0.626              1.876              2.407
 Vibration    14          0.637              1.841              2.143
 Vibration    15          0.642              1.826              2.048
 Vibration    16          0.647              1.810              1.953
 Vibration    17          0.662              1.766              1.745
 Vibration    18          0.666              1.753              1.688
 Vibration    19          0.669              1.743              1.650
 Vibration    20          0.682              1.704              1.510
 Vibration    21          0.687              1.689              1.464
 Vibration    22          0.704              1.640              1.323
 Vibration    23          0.720              1.595              1.210
 Vibration    24          0.755              1.499              1.013
 Vibration    25          0.774              1.449              0.928
 Vibration    26          0.775              1.446              0.922
 Vibration    27          0.796              1.392              0.839
 Vibration    28          0.811              1.356              0.789
 Vibration    29          0.825              1.322              0.745
 Vibration    30          0.843              1.278              0.690
 Vibration    31          0.871              1.216              0.620
 Vibration    32          0.902              1.148              0.552
 Vibration    33          0.914              1.121              0.526

 Normal termination of Gaussian 16 at Sat Mar 31 12:16:18 2018.
