                         Program Version 4.0.1.2 - RELEASE -
|  1> !CPCM DLPNO-CCSD(T) Extrapolate(2/3,cc)  RIJCOSX GRIDX5 TightSCF KDIIS
|  2> %cpcm
|  3> smd true
|  4> solvent "Ethanol"
|  5> end
|  6> # Number of processors
|  7> %pal nprocs 24 end
|  8> # Memory per core
|  9> %maxcore 4000
| 10> %scf maxiter 500
| 11>     end
| 12> % mdci
| 13>    # Loose cut-off
| 14>    #  TCutPairs 1e-3
| 15>    #  TCutPNO 1e-6
| 16>    #  TCutMKN 1e-3
| 17>    # Normal cut-off
| 18>      TCutPairs 1e-4
| 19>      TCutPNO 3.33e-7
| 20>      TCutMKN 1e-3
| 21>    # Tight cut-off
| 22>    #TCutPairs 1e-5
| 23>    #TCutPNO 1e-7
| 24>    #TCutMKN 1e-4
| 25>    # Faster/less disk-IO for large jobs
| 26>    #LocalTrafo 3
| 27>    Density None
| 28> end
| 29> % output
| 30>    printlevel mini
| 31>    print[ P_SCFInfo ] 1
| 32>    print[ P_SCFIterInfo ] 1
| 33>    print[ P_OrbEn ] 0
| 34>    print[ P_Cartesian ] 0
| 35> end
| 36> % elprop
| 37>    Dipole False
| 38> end
| 39> * xyz 2 1
| 40>  C                  1.21770300    4.12926400   -0.45418500
| 41>  C                  0.78451300    2.88960600   -0.91623700
| 42>  C                  0.29816100    1.93294900   -0.01399600
| 43>  C                  0.24356300    2.23893900    1.35158600
| 44>  C                  0.65425900    3.48792400    1.80291500
| 45>  H                  1.60630300    4.85667800   -1.16062100
| 46>  H                  0.83531600    2.67057500   -1.97776400
| 47>  H                 -0.09064300    1.50455900    2.07453000
| 48>  H                  0.60083600    3.71617200    2.86321700
| 49>  P                 -0.25348300    0.35709900   -0.72785200
| 50>  C                 -1.90052200   -0.25313300   -0.17144700
| 51>  C                 -2.62348500   -1.06781800   -1.04762700
| 52>  C                 -2.48609400    0.14446000    1.03102100
| 53>  C                 -3.88458100   -1.49935800   -0.68488900
| 54>  H                 -2.23256500   -1.36420800   -2.01421500
| 55>  C                 -3.75682500   -0.29581400    1.34108200
| 56>  H                 -1.98320100    0.78385300    1.74307500
| 57>  H                 -4.50008900   -2.14144700   -1.30178700
| 58>  H                 -4.27789300   -0.02985200    2.25198700
| 59>  C                  0.73198300   -0.85353700    0.94732400
| 60>  C                  0.01583900   -1.92373800    1.49025600
| 61>  C                  1.82951000   -0.35728500    1.65319600
| 62>  C                  0.34698700   -2.44325300    2.74109100
| 63>  H                 -0.80691800   -2.37973900    0.94347700
| 64>  C                  2.16877800   -0.87092600    2.90275200
| 65>  H                  2.43850100    0.43983500    1.23185400
| 66>  H                 -0.22910900   -3.26792500    3.15296700
| 67>  H                  3.02097900   -0.46372700    3.44089000
| 68>  C                  1.14593600    4.43305000    0.90306300
| 69>  H                  1.47623400    5.40386100    1.26152000
| 70>  O                 -0.70325800    0.82773900   -2.23914800
| 71>  C                  0.99009400   -0.82471400   -1.09336500
| 72>  C                  2.33284800   -0.35059700   -1.35355400
| 73>  C                  0.70858400   -2.16759500   -1.54843200
| 74>  C                  3.30658700   -1.23736700   -1.68483000
| 75>  H                  2.59276700    0.69587100   -1.24901200
| 76>  C                  1.73635300   -2.99480600   -1.87046700
| 77>  H                 -0.29931900   -2.55939600   -1.57982900
| 78>  H                  4.33697700   -0.94207700   -1.84257400
| 79>  H                  1.58502900   -4.02712700   -2.16210400
| 80>  C                 -1.77526000    1.74695300   -2.50258800
| 81>  H                 -1.44614500    2.40541400   -3.30878100
| 82>  H                 -2.65690700    1.18391100   -2.82184400
| 83>  H                 -2.02473800    2.34971000   -1.62331900
| 84>  N                 -4.40301200   -1.10370800    0.48643800
| 85>  H                 -5.33991900   -1.42229900    0.73311000
| 86>  C                  1.42183000   -1.91276700    3.45430600
| 87>  H                  1.68687000   -2.31990600    4.42637100
| 88>  N                  3.02202300   -2.55207000   -1.87915400
| 89>  H                  3.76227700   -3.18330700   -2.16302500
| 90> *
| 91>                            ****END OF INPUT****
 Total Charge           Charge          ....    2
 Multiplicity           Mult            ....    1
 Number of Electrons    NEL             ....  196
E(0)                                       ...  -1408.580237256
E(0)                                       ...  -1408.580237256
E(CORR)(strong-pairs)                      ...     -3.755514065
E(CORR)(weak-pairs)                        ...     -0.035919875
E(CORR)(corrected)                         ...     -3.791433940
E(TOT)                                     ...  -1412.371671196
 Multiplicity           Mult            ....    1
 Number of Electrons    NEL             ....  196
 Basis Dimension        Dim             .... 1136
E(0)                                       ...  -1408.873660299
E(CORR)(strong-pairs)                      ...     -4.473342883
E(CORR)(weak-pairs)                        ...     -0.043751887
E(CORR)(corrected)                         ...     -4.517094770
E(TOT)                                     ...  -1413.390755069
E(CCSD(T))                                 ...  -1413.619801031
FINAL SINGLE POINT ENERGY     -1414.181410342275
                             ****ORCA TERMINATED NORMALLY****
TOTAL RUN TIME: 0 days 8 hours 6 minutes 54 seconds 61 msec
