                         Program Version 4.0.1.2 - RELEASE -
|  1> !CPCM DLPNO-CCSD(T) Extrapolate(2/3,cc)  RIJCOSX GRIDX5 TightSCF KDIIS
|  2> %cpcm
|  3> smd true
|  4> solvent "Ethanol"
|  5> end
|  6> # Number of processors
|  7> %pal nprocs 24 end
|  8> # Memory per core
|  9> %maxcore 4000
| 10> %scf maxiter 500
| 11>     end
| 12> % mdci
| 13>    # Loose cut-off
| 14>    #  TCutPairs 1e-3
| 15>    #  TCutPNO 1e-6
| 16>    #  TCutMKN 1e-3
| 17>    # Normal cut-off
| 18>      TCutPairs 1e-4
| 19>      TCutPNO 3.33e-7
| 20>      TCutMKN 1e-3
| 21>    # Tight cut-off
| 22>    #TCutPairs 1e-5
| 23>    #TCutPNO 1e-7
| 24>    #TCutMKN 1e-4
| 25>    # Faster/less disk-IO for large jobs
| 26>    #LocalTrafo 3
| 27>    Density None
| 28> end
| 29> % output
| 30>    printlevel mini
| 31>    print[ P_SCFInfo ] 1
| 32>    print[ P_SCFIterInfo ] 1
| 33>    print[ P_OrbEn ] 0
| 34>    print[ P_Cartesian ] 0
| 35> end
| 36> % elprop
| 37>    Dipole False
| 38> end
| 39> * xyz 2 1
| 40>  C                 -3.71951200    1.10617900    1.35600700
| 41>  C                 -2.42529900    1.20691100    0.85515500
| 42>  C                 -1.98931200    0.32719200   -0.14297000
| 43>  C                 -2.88039500   -0.62204500   -0.66364500
| 44>  C                 -4.17224100   -0.71829500   -0.15362400
| 45>  H                 -4.04517700    1.79209200    2.13235400
| 46>  H                 -1.77506100    1.98074500    1.24455400
| 47>  H                 -2.59512300   -1.28335000   -1.47463800
| 48>  H                 -4.85191000   -1.46105400   -0.56053000
| 49>  P                 -0.33710800    0.49152000   -0.85479000
| 50>  C                  0.58551200   -1.02757500   -1.07258600
| 51>  C                  1.94345700   -0.87935400   -1.50582200
| 52>  C                  0.02938600   -2.34431100   -1.18373100
| 53>  C                  2.70238500   -1.98336500   -1.76783400
| 54>  H                  2.40446500    0.09639200   -1.60130800
| 55>  C                  0.84254700   -3.40217900   -1.45732900
| 56>  H                 -1.01316200   -2.54358000   -0.97879400
| 57>  H                  3.74404300   -1.92470600   -2.05904500
| 58>  H                  0.48081900   -4.42178200   -1.50420200
| 59>  C                  0.54102900   -0.82011500    1.08032800
| 60>  C                  1.84802600   -0.72815400    1.56839700
| 61>  C                 -0.40378400   -1.48450000    1.87184700
| 62>  C                  2.17441100   -1.24316200    2.80368300
| 63>  H                  2.63410000   -0.24831100    0.98954500
| 64>  C                 -0.04554000   -1.99058500    3.10444900
| 65>  H                 -1.43233100   -1.61836000    1.54988500
| 66>  H                  3.16275600   -1.19389100    3.24444400
| 67>  H                 -0.72875200   -2.49962600    3.77372000
| 68>  C                 -4.59101700    0.13728200    0.86263300
| 69>  H                 -5.59911700    0.05865000    1.25942800
| 70>  O                 -0.59983900    1.08580200   -2.34853400
| 71>  C                  0.66481400    1.87156300   -0.23548300
| 72>  C                  0.76137600    2.19130500    1.12539900
| 73>  C                  1.36088500    2.64547200   -1.17499900
| 74>  C                  1.53492700    3.27167000    1.53557200
| 75>  H                  0.24521700    1.60646900    1.87774000
| 76>  C                  2.14841200    3.71362900   -0.75434100
| 77>  H                  1.29392600    2.41749000   -2.23265800
| 78>  H                  1.59351900    3.51408500    2.59250000
| 79>  H                  2.69065700    4.29854500   -1.49135800
| 80>  C                 -1.27492800    0.35671700   -3.38342200
| 81>  H                 -2.35607500    0.39066200   -3.22310000
| 82>  H                 -1.02793300    0.86350300   -4.31737700
| 83>  H                 -0.92902400   -0.68068100   -3.43046400
| 84>  C                  2.23406700    4.03125000    0.59886200
| 85>  H                  2.84347800    4.86976800    0.92393700
| 86>  N                  1.22152600   -1.85215300    3.53540200
| 87>  N                  2.16293200   -3.22083500   -1.70926900
| 88>  H                  1.47019100   -2.22917500    4.44707100
| 89>  H                  2.73940300   -4.02537600   -1.93378500
| 90> *
| 91>
| 92>                          ****END OF INPUT****
 Total Charge           Charge          ....    2
 Multiplicity           Mult            ....    1
 Number of Electrons    NEL             ....  196
E(0)                                       ...  -1408.600065584
E(0)                                       ...  -1408.600065584
E(CORR)(strong-pairs)                      ...     -3.751523902
E(CORR)(weak-pairs)                        ...     -0.033874806
E(CORR)(corrected)                         ...     -3.785398707
E(TOT)                                     ...  -1412.385464292
 Multiplicity           Mult            ....    1
 Number of Electrons    NEL             ....  196
 Basis Dimension        Dim             .... 1136
E(0)                                       ...  -1408.893227781
E(CORR)(strong-pairs)                      ...     -4.468169621
E(CORR)(weak-pairs)                        ...     -0.043048212
E(CORR)(corrected)                         ...     -4.511217833
E(TOT)                                     ...  -1413.404445614
E(CCSD(T))                                 ...  -1413.633282725
FINAL SINGLE POINT ENERGY     -1414.194715121166
                             ****ORCA TERMINATED NORMALLY****
TOTAL RUN TIME: 0 days 7 hours 14 minutes 46 seconds 853 msec
