 Gaussian 16, Revision A.03,
 Gaussian 16:  ES64L-G16RevA.03 25-Dec-2016

 ----------------------------------------------------------------------
 # freq=noraman wb97xd/6-31+g(d) scrf=(solvent=ethanol,smd) geom=connec
 tivity
 ----------------------------------------------------------------------

 -------------------
 Title Card Required
 -------------------
 Symbolic Z-matrix:
 Charge =  2 Multiplicity = 1

                         Standard orientation:
 ---------------------------------------------------------------------
 Center     Atomic      Atomic             Coordinates (Angstroms)
 Number     Number       Type             X           Y           Z
 ---------------------------------------------------------------------
      1          6           0        4.058556   -1.205943   -0.423885
      2          6           0        2.833414   -0.732108   -0.883477
      3          6           0        1.980421   -0.036823   -0.014770
      4          6           0        2.381612    0.212518    1.301114
      5          6           0        3.614318   -0.251410    1.748989
      6          1           0        4.710250   -1.750934   -1.100231
      7          1           0        2.555350   -0.895242   -1.921066
      8          1           0        1.750110    0.763985    1.986246
      9          1           0        3.920862   -0.050998    2.771294
     10         15           0        0.420170    0.549268   -0.709913
     11          6           0       -0.392077    1.944270    0.117818
     12          6           0       -0.871340    2.963904   -0.717789
     13          6           0       -0.548270    2.064378    1.505031
     14          6           0       -1.500513    4.079678   -0.173258
     15          1           0       -0.760062    2.891414   -1.794811
     16          6           0       -1.162770    3.189888    2.042918
     17          1           0       -0.219547    1.284003    2.179924
     18          1           0       -1.874749    4.857013   -0.832755
     19          1           0       -1.272921    3.273258    3.120028
     20          6           0       -0.757046   -0.991630    0.846167
     21          6           0       -2.012694   -0.716313    1.395528
     22          6           0       -0.020903   -2.045842    1.398529
     23          6           0       -2.478630   -1.438450    2.473102
     24          1           0       -2.648713    0.066855    0.990309
     25          6           0       -0.515799   -2.752441    2.474705
     26          1           0        0.947036   -2.336518    0.999922
     27          1           0       -3.433303   -1.266984    2.955886
     28          1           0        0.005924   -3.569792    2.957519
     29          6           0        4.448439   -0.969102    0.892875
     30          1           0        5.407066   -1.334759    1.249551
     31          8           0        0.883923    1.182826   -2.137006
     32          6           0       -0.703209   -0.707582   -1.276685
     33          6           0       -0.254494   -1.988911   -1.740614
     34          6           0       -2.032026   -0.323548   -1.655332
     35          6           0       -1.154623   -2.866187   -2.265382
     36          1           0        0.774549   -2.305741   -1.628606
     37          6           0       -2.878631   -1.252500   -2.183097
     38          1           0       -2.397978    0.683139   -1.492204
     39          1           0       -0.883466   -3.864975   -2.584773
     40          1           0       -3.905964   -1.030825   -2.445197
     41          6           0        1.924692    2.169362   -2.252940
     42          1           0        2.882212    1.667596   -2.414638
     43          1           0        1.673832    2.783319   -3.119368
     44          1           0        1.984544    2.801614   -1.361924
     45          7           0       -1.719013   -2.426714    2.982053
     46          1           0       -2.073113   -2.954314    3.776702
     47          7           0       -2.451493   -2.511027   -2.442074
     48          1           0       -3.094257   -3.176510   -2.858392
     49          6           0       -1.642046    4.197465    1.206997
     50          1           0       -2.126343    5.071908    1.632208
 ---------------------------------------------------------------------

 SCF Done:  E(RwB97XD) =  -1415.68691564     A.U. after   18 cycles

 The electronic state is 1-A.
 Alpha  occ. eigenvalues --  -77.38626 -19.32034 -14.56938 -14.54886 -10.39355
 Alpha  occ. eigenvalues --  -10.38833 -10.38831 -10.38263 -10.38162 -10.35426
 Alpha  occ. eigenvalues --  -10.34815 -10.34795 -10.34691 -10.33892 -10.33862
 Alpha  occ. eigenvalues --  -10.33815 -10.33689 -10.33425 -10.33360 -10.33310
 Alpha  occ. eigenvalues --  -10.33305 -10.32638 -10.32638 -10.32333 -10.32274
 Alpha  occ. eigenvalues --  -10.32228 -10.32217  -6.80145  -4.95177  -4.94832
 Alpha  occ. eigenvalues --   -4.94822  -1.17016  -1.13626  -1.12149  -0.99180
 Alpha  occ. eigenvalues --   -0.98349  -0.96803  -0.93857  -0.91414  -0.90964
 Alpha  occ. eigenvalues --   -0.89824  -0.87429  -0.87143  -0.86840  -0.83861
 Alpha  occ. eigenvalues --   -0.79473  -0.77878  -0.76795  -0.75953  -0.75238
 Alpha  occ. eigenvalues --   -0.72526  -0.72425  -0.71553  -0.70159  -0.69547
 Alpha  occ. eigenvalues --   -0.68449  -0.64003  -0.63121  -0.61929  -0.61792
 Alpha  occ. eigenvalues --   -0.60848  -0.59335  -0.58692  -0.57796  -0.57113
 Alpha  occ. eigenvalues --   -0.56455  -0.56173  -0.56074  -0.55927  -0.55369
 Alpha  occ. eigenvalues --   -0.55286  -0.54982  -0.54669  -0.53922  -0.53660
 Alpha  occ. eigenvalues --   -0.52751  -0.51940  -0.51486  -0.49482  -0.48763
 Alpha  occ. eigenvalues --   -0.48190  -0.47861  -0.47244  -0.46205  -0.45110
 Alpha  occ. eigenvalues --   -0.44645  -0.44528  -0.43582  -0.42712  -0.40383
 Alpha  occ. eigenvalues --   -0.39763  -0.38751  -0.37350  -0.36033  -0.35577
 Alpha  occ. eigenvalues --   -0.35192  -0.34982  -0.30156
 Alpha virt. eigenvalues --   -0.03742   0.00329   0.01417   0.02231   0.02290
 Alpha virt. eigenvalues --    0.03269   0.03622   0.04841   0.04900   0.05929
 Alpha virt. eigenvalues --    0.05967   0.06599   0.07347   0.07607   0.08105

 Mulliken charges:
               1
     1  C   -0.611634
     2  C    0.017829
     3  C    0.031785
     4  C    0.116482
     5  C   -0.666198
     6  H    0.262998
     7  H    0.283802
     8  H    0.262952
     9  H    0.259820
    10  P    0.767224
    11  C   -0.441632
    12  C    0.136419
    13  C    0.391528
    14  C   -0.613188
    15  H    0.280277
    16  C   -0.653264
    17  H    0.264761
    18  H    0.261334
    19  H    0.259378
    20  C   -1.177156
    21  C    1.030757
    22  C    0.818782
    23  C   -0.787849
    24  H    0.288133
    25  C   -0.751640
    26  H    0.297775
    27  H    0.305476
    28  H    0.305833
    29  C   -0.207145
    30  H    0.261550
    31  O   -0.463809
    32  C   -0.023389
    33  C    0.655637
    34  C    0.524040
    35  C   -0.915062
    36  H    0.293993
    37  C   -0.822945
    38  H    0.303023
    39  H    0.300483
    40  H    0.301353
    41  C   -0.437474
    42  H    0.258807
    43  H    0.255186
    44  H    0.261195
    45  N   -0.337941
    46  H    0.564239
    47  N   -0.391373
    48  H    0.551529
    49  C   -0.134657
    50  H    0.261974
 Sum of Mulliken charges =   2.00000

 Dipole moment (field-independent basis, Debye):
    X=             -8.9729    Y=            -11.1745    Z=              3.5368  Tot=             14.7611
 Quadrupole moment (field-independent basis, Debye-Ang):
   XX=            -91.9943   YY=            -86.6898   ZZ=            -93.2061
   XY=             16.0041   XZ=             -2.1637   YZ=             -6.3804

  Exact polarizability: 426.345 -52.450 409.138  18.550  15.596 475.278
 Approx polarizability: 325.479 -39.777 313.729   9.518   9.071 356.672

 ******    1 imaginary frequencies (negative Signs) ******

                      1                      2                      3
                      A                      A                      A
 Frequencies --   -437.0217                28.4420                40.3457
 Red. masses --     10.0893                 5.2596                 4.2959
 Frc consts  --      1.1353                 0.0025                 0.0041
 IR Inten    --   1160.1986                 1.5349                 2.0027

                      4                      5                      6
                      A                      A                      A
 Frequencies --     54.0071                56.6293                62.6710
 Red. masses --      3.9851                 4.8210                 4.7978
 Frc consts  --      0.0068                 0.0091                 0.0111
 IR Inten    --      0.6378                 3.7922                 1.1360

                      7                      8                      9
                      A                      A                      A
 Frequencies --     80.4709                81.2858                99.6279
 Red. masses --      3.3082                 3.3160                 1.6404
 Frc consts  --      0.0126                 0.0129                 0.0096
 IR Inten    --      3.6695                 5.6037                 1.7872

                     10                     11                     12
                      A                      A                      A
 Frequencies --    101.3533               109.0052               134.8656
 Red. masses --      2.3221                 3.9140                 3.5854
 Frc consts  --      0.0141                 0.0274                 0.0384
 IR Inten    --      5.6539                 1.7338                 0.6681

                     13                     14                     15
                      A                      A                      A
 Frequencies --    149.0727               158.6560               192.5150
 Red. masses --      3.4136                 5.5088                 4.5230
 Frc consts  --      0.0447                 0.0817                 0.0988
 IR Inten    --      4.5697                 7.5237                 2.0411

                     16                     17                     18
                      A                      A                      A
 Frequencies --    202.4235               219.8001               243.1084
 Red. masses --      4.5259                 4.8596                 4.8776
 Frc consts  --      0.1093                 0.1383                 0.1698
 IR Inten    --      0.3313                 0.1082                11.4556

                     19                     20                     21
                      A                      A                      A
 Frequencies --    256.6379               260.8483               285.2728
 Red. masses --      5.5975                 5.0881                 4.9856
 Frc consts  --      0.2172                 0.2040                 0.2391
 IR Inten    --      5.6318                 5.1099                10.4263

                     22                     23                     24
                      A                      A                      A
 Frequencies --    289.7911               318.5714               338.1874
 Red. masses --      4.7152                 6.9690                 3.7143
 Frc consts  --      0.2333                 0.4167                 0.2503
 IR Inten    --      1.5438                14.8158                50.3474

                     25                     26                     27
                      A                      A                      A
 Frequencies --    392.8248               401.1113               416.4654
 Red. masses --      2.7130                 4.9832                 2.8999
 Frc consts  --      0.2467                 0.4724                 0.2963
 IR Inten    --      0.1708                16.2819                 2.3133

                     28                     29                     30
                      A                      A                      A
 Frequencies --    432.4733               447.6309               468.2091
 Red. masses --      3.0816                 3.0956                 4.5778
 Frc consts  --      0.3396                 0.3655                 0.5913
 IR Inten    --      1.4354                 0.1240                 1.0560

                     31                     32                     33
                      A                      A                      A
 Frequencies --    486.7705               497.6936               539.8516
 Red. masses --      3.6598                 3.9212                10.0879
 Frc consts  --      0.5109                 0.5723                 1.7322
 IR Inten    --     12.3075                56.8996               211.7433

                     34                     35                     36
                      A                      A                      A
 Frequencies --    557.8558               631.6867               633.9802
 Red. masses --      5.5968                 6.3908                 6.2148
 Frc consts  --      1.0262                 1.5025                 1.4717
 IR Inten    --    179.6614                 0.6818                 0.0844

                     37                     38                     39
                      A                      A                      A
 Frequencies --    635.4897               648.6711               656.8903
 Red. masses --      6.3716                 2.8408                 6.4968
 Frc consts  --      1.5161                 0.7043                 1.6517
 IR Inten    --      5.7720               111.6287                 0.7664

                     40                     41                     42
                      A                      A                      A
 Frequencies --    661.1236               693.0268               707.0208
 Red. masses --      6.2644                 4.1743                 1.8663
 Frc consts  --      1.6132                 1.1812                 0.5497
 IR Inten    --      4.0178                81.2194               150.2610

                     43                     44                     45
                      A                      A                      A
 Frequencies --    717.1878               721.4607               723.7292
 Red. masses --      2.1579                 2.3702                 2.1894
 Frc consts  --      0.6539                 0.7269                 0.6757
 IR Inten    --     74.5481                66.8558                54.6491

                     46                     47                     48
                      A                      A                      A
 Frequencies --    750.3469               750.7802               762.1244
 Red. masses --      5.0190                 5.2039                 2.5359
 Frc consts  --      1.6649                 1.7282                 0.8678
 IR Inten    --    221.2911               117.0475                28.1092

                     49                     50                     51
                      A                      A                      A
 Frequencies --    770.3223               774.3373               782.9032
 Red. masses --      1.3896                 1.6201                 2.1038
 Frc consts  --      0.4858                 0.5723                 0.7598
 IR Inten    --    254.4745                 9.2962                18.9557

                     52                     53                     54
                      A                      A                      A
 Frequencies --    830.4677               846.5252               882.6126
 Red. masses --      1.4575                 1.2647                 1.2514
 Frc consts  --      0.5922                 0.5340                 0.5743
 IR Inten    --    130.0313                 7.7584                 0.5935

                     55                     56                     57
                      A                      A                      A
 Frequencies --    887.4502               892.0362               905.2844
 Red. masses --      1.2404                 1.2494                 1.3232
 Frc consts  --      0.5756                 0.5858                 0.6389
 IR Inten    --      2.5205                 0.1705                20.2474

                     58                     59                     60
                      A                      A                      A
 Frequencies --    980.2381               990.2102              1001.3386
 Red. masses --      1.3314                 1.3253                 1.3030
 Frc consts  --      0.7537                 0.7657                 0.7698
 IR Inten    --      1.2586                 1.1776                 4.8812

                     61                     62                     63
                      A                      A                      A
 Frequencies --   1004.2502              1009.6452              1017.2261
 Red. masses --      1.4225                 4.1574                 1.3758
 Frc consts  --      0.8453                 2.4970                 0.8387
 IR Inten    --      3.5133                58.4894                 3.1188

                     64                     65                     66
                      A                      A                      A
 Frequencies --   1021.1083              1024.1357              1025.2787
 Red. masses --      5.0167                 2.7308                 1.5711
 Frc consts  --      3.0819                 1.6876                 0.9730
 IR Inten    --      7.9985                 0.8454                 4.6520

                     67                     68                     69
                      A                      A                      A
 Frequencies --   1031.3048              1032.6751              1034.0624
 Red. masses --      2.0451                 2.5566                 1.5106
 Frc consts  --      1.2816                 1.6063                 0.9517
 IR Inten    --      2.6146                 1.0412                 1.0779

                     70                     71                     72
                      A                      A                      A
 Frequencies --   1048.1656              1049.8802              1053.5709
 Red. masses --      1.3336                 1.3227                 5.8217
 Frc consts  --      0.8632                 0.8590                 3.8074
 IR Inten    --      0.6204                 1.2403                 6.1589

                     73                     74                     75
                      A                      A                      A
 Frequencies --   1064.8702              1065.8777              1069.5044
 Red. masses --      2.8314                 3.2826                 5.8277
 Frc consts  --      1.8917                 2.1973                 3.9274
 IR Inten    --     40.9092                77.7675               485.1991

                     76                     77                     78
                      A                      A                      A
 Frequencies --   1084.3912              1102.2209              1124.3015
 Red. masses --      2.3162                 1.9010                 1.7830
 Frc consts  --      1.6047                 1.3607                 1.3279
 IR Inten    --     30.0570                14.5881                18.4364

                     79                     80                     81
                      A                      A                      A
 Frequencies --   1131.8934              1134.4014              1141.7831
 Red. masses --      2.2348                 1.6209                 1.8318
 Frc consts  --      1.6870                 1.2290                 1.4070
 IR Inten    --     66.2506                 5.6466                14.6468

                     82                     83                     84
                      A                      A                      A
 Frequencies --   1148.8170              1149.7720              1179.8117
 Red. masses --      2.7171                 1.8476                 4.9819
 Frc consts  --      2.1128                 1.4391                 4.0857
 IR Inten    --    140.8584                 4.0157               107.3090

                     85                     86                     87
                      A                      A                      A
 Frequencies --   1193.9766              1194.8364              1198.4973
 Red. masses --      1.2577                 1.0971                 1.1034
 Frc consts  --      1.0564                 0.9228                 0.9338
 IR Inten    --      5.3761                 0.3050                 0.8093

                     88                     89                     90
                      A                      A                      A
 Frequencies --   1222.4950              1229.6523              1238.6865
 Red. masses --      1.3626                 1.1498                 1.1740
 Frc consts  --      1.1998                 1.0243                 1.0613
 IR Inten    --     37.9702                 9.2639                14.7486

                     91                     92                     93
                      A                      A                      A
 Frequencies --   1242.0383              1254.7367              1287.5209
 Red. masses --      1.1502                 1.1789                 1.3929
 Frc consts  --      1.0454                 1.0935                 1.3604
 IR Inten    --      0.7839                46.7417                14.1697

                     94                     95                     96
                      A                      A                      A
 Frequencies --   1292.6232              1328.7056              1336.8446
 Red. masses --      1.3229                 1.8723                 2.5761
 Frc consts  --      1.3023                 1.9475                 2.7125
 IR Inten    --      1.6324                 7.8634                 2.0820

                     97                     98                     99
                      A                      A                      A
 Frequencies --   1342.5145              1345.4478              1379.8434
 Red. masses --      1.6668                 4.9347                 1.5479
 Frc consts  --      1.7700                 5.2632                 1.7364
 IR Inten    --      3.8943                 3.2649                10.1950

                    100                    101                    102
                      A                      A                      A
 Frequencies --   1391.6943              1398.5532              1443.4917
 Red. masses --      1.3721                 2.5216                 1.8781
 Frc consts  --      1.5657                 2.9059                 2.3056
 IR Inten    --     15.2636                16.4839                11.2839

                    103                    104                    105
                      A                      A                      A
 Frequencies --   1487.4385              1493.0358              1507.9144
 Red. masses --      2.1692                 2.1877                 1.0475
 Frc consts  --      2.8277                 2.8733                 1.4033
 IR Inten    --     22.4884                55.3347                15.7946

                    106                    107                    108
                      A                      A                      A
 Frequencies --   1511.7759              1513.7721              1522.3049
 Red. masses --      1.1392                 1.8076                 1.0514
 Frc consts  --      1.5340                 2.4405                 1.4355
 IR Inten    --      7.8234               134.0411                19.3855

                    109                    110                    111
                      A                      A                      A
 Frequencies --   1524.3726              1543.5602              1546.4019
 Red. masses --      2.0110                 2.0294                 2.7896
 Frc consts  --      2.7533                 2.8488                 3.9303
 IR Inten    --     75.1021                15.0719                31.1949

                    112                    113                    114
                      A                      A                      A
 Frequencies --   1551.1275              1552.8007              1639.7675
 Red. masses --      2.0153                 3.5027                 2.4278
 Frc consts  --      2.8568                 4.9761                 3.8461
 IR Inten    --      0.2433                28.2490               111.7605

                    115                    116                    117
                      A                      A                      A
 Frequencies --   1657.0535              1661.6648              1667.3476
 Red. masses --      5.3207                 5.2881                 3.5883
 Frc consts  --      8.6078                 8.6027                 5.8775
 IR Inten    --      1.8681                 1.9479                72.3844

                    118                    119                    120
                      A                      A                      A
 Frequencies --   1674.0527              1676.2674              1676.8728
 Red. masses --      5.6541                 5.4258                 4.8517
 Frc consts  --      9.3359                 8.9825                 8.0379
 IR Inten    --     15.5837                35.6718               536.0427

                    121                    122                    123
                      A                      A                      A
 Frequencies --   1710.4218              3086.1525              3175.8241
 Red. masses --      5.1199                 1.0296                 1.1084
 Frc consts  --      8.8250                 5.7779                 6.5865
 IR Inten    --    474.1324                54.0319                25.0753

                    124                    125                    126
                      A                      A                      A
 Frequencies --   3197.4216              3217.4308              3223.5876
 Red. masses --      1.1078                 1.0911                 1.0879
 Frc consts  --      6.6730                 6.6548                 6.6605
 IR Inten    --     20.4823                 7.5756                 0.6436

                    127                    128                    129
                      A                      A                      A
 Frequencies --   3225.0902              3230.7598              3232.0226
 Red. masses --      1.0877                 1.0915                 1.0906
 Frc consts  --      6.6657                 6.7127                 6.7120
 IR Inten    --      0.4968                 9.8744                 2.5439

                    130                    131                    132
                      A                      A                      A
 Frequencies --   3233.1168              3239.4764              3241.9592
 Red. masses --      1.0915                 1.0945                 1.0962
 Frc consts  --      6.7224                 6.7673                 6.7880
 IR Inten    --      9.1342                10.1047                15.4535

                    133                    134                    135
                      A                      A                      A
 Frequencies --   3247.1896              3253.1752              3260.2400
 Red. masses --      1.0988                 1.0946                 1.0915
 Frc consts  --      6.8261                 6.8255                 6.8356
 IR Inten    --     16.3171                 7.6135                 3.0822

                    136                    137                    138
                      A                      A                      A
 Frequencies --   3266.3716              3276.8706              3281.2904
 Red. masses --      1.0945                 1.0900                 1.0974
 Frc consts  --      6.8800                 6.8958                 6.9616
 IR Inten    --      2.2189                 2.5909                 1.5405

                    139                    140                    141
                      A                      A                      A
 Frequencies --   3284.9453              3286.1909              3288.9163
 Red. masses --      1.0983                 1.0976                 1.0993
 Frc consts  --      6.9830                 6.9838                 7.0060
 IR Inten    --      1.5953                 0.9144                 2.2719

                    142                    143                    144
                      A                      A                      A
 Frequencies --   3291.6577              3612.1814              3640.9877
 Red. masses --      1.0904                 1.0813                 1.0808
 Frc consts  --      6.9612                 8.3126                 8.4421
 IR Inten    --      5.0901               379.9999               442.2181

 - Thermochemistry -
 -------------------
 Temperature   298.150 Kelvin.  Pressure   1.00000 Atm.
 Atom     1 has atomic number  6 and mass  12.00000

 Molecular mass:   374.15480 amu.
 Principal axes and moments of inertia in atomic units:
                           1         2         3
     Eigenvalues --  9288.767669335.23688**********
           X            0.74845  -0.66311  -0.01067
           Y            0.66306   0.74852  -0.00843
           Z            0.01358  -0.00077   0.99991
 This molecule is an asymmetric top.
 Rotational symmetry number  1.
 Warning -- assumption of classical behavior for rotation
           may cause significant error
 Rotational temperatures (Kelvin)      0.00932     0.00928     0.00786
 Rotational constants (GHZ):           0.19429     0.19333     0.16369
    1 imaginary frequencies ignored.
 Zero-point vibrational energy    1095322.6 (Joules/Mol)
                                  261.78838 (Kcal/Mol)
 Warning -- explicit consideration of  33 degrees of freedom as
           vibrations may cause significant error
 Vibrational temperatures:     40.92    58.05    77.70    81.48    90.17
          (Kelvin)            115.78   116.95   143.34   145.82   156.83
                              194.04   214.48   228.27   276.99   291.24
                              316.24   349.78   369.24   375.30   410.44
                              416.94   458.35   486.58   565.19   577.11
                              599.20   622.23   644.04   673.65   700.35
                              716.07   776.73   802.63   908.86   912.16
                              914.33   933.29   945.12   951.21   997.11
                             1017.25  1031.87  1038.02  1041.28  1079.58
                             1080.21  1096.53  1108.32  1114.10  1126.42
                             1194.86  1217.96  1269.88  1276.84  1283.44
                             1302.50  1410.34  1424.69  1440.70  1444.89
                             1452.65  1463.56  1469.15  1473.50  1475.15
                             1483.82  1485.79  1487.79  1508.08  1510.54
                             1515.85  1532.11  1533.56  1538.78  1560.20
                             1585.85  1617.62  1628.54  1632.15  1642.77
                             1652.89  1654.27  1697.49  1717.87  1719.10
                             1724.37  1758.90  1769.20  1782.19  1787.02
                             1805.29  1852.46  1859.80  1911.71  1923.42
                             1931.58  1935.80  1985.29  2002.34  2012.21
                             2076.86  2140.09  2148.15  2169.55  2175.11
                             2177.98  2190.26  2193.23  2220.84  2224.93
                             2231.73  2234.13  2359.26  2384.13  2390.77
                             2398.94  2408.59  2411.77  2412.65  2460.92
                             4440.29  4569.30  4600.38  4629.17  4638.02
                             4640.19  4648.34  4650.16  4651.73  4660.88
                             4664.46  4671.98  4680.59  4690.76  4699.58
                             4714.69  4721.04  4726.30  4728.10  4732.02
                             4735.96  5197.12  5238.57

 Zero-point correction=                           0.417186 (Hartree/Particle)
 Thermal correction to Energy=                    0.440516
 Thermal correction to Enthalpy=                  0.441461
 Thermal correction to Gibbs Free Energy=         0.363976
 Sum of electronic and zero-point Energies=          -1415.269729
 Sum of electronic and thermal Energies=             -1415.246399
 Sum of electronic and thermal Enthalpies=           -1415.245455
 Sum of electronic and thermal Free Energies=        -1415.322940

                     E (Thermal)             CV                S
                      KCal/Mol        Cal/Mol-Kelvin    Cal/Mol-Kelvin
 Total                  276.428             91.569            163.080
 Electronic               0.000              0.000              0.000
 Translational            0.889              2.981             43.651
 Rotational               0.889              2.981             35.212
 Vibrational            274.651             85.607             84.216
 Vibration     1          0.593              1.984              5.935
 Vibration     2          0.594              1.981              5.242
 Vibration     3          0.596              1.976              4.665
 Vibration     4          0.596              1.975              4.571
 Vibration     5          0.597              1.972              4.371
 Vibration     6          0.600              1.962              3.879
 Vibration     7          0.600              1.962              3.860
 Vibration     8          0.604              1.949              3.462
 Vibration     9          0.604              1.948              3.428
 Vibration    10          0.606              1.942              3.287
 Vibration    11          0.613              1.919              2.875
 Vibration    12          0.618              1.904              2.684
 Vibration    13          0.621              1.893              2.566
 Vibration    14          0.634              1.850              2.203
 Vibration    15          0.639              1.836              2.111
 Vibration    16          0.647              1.811              1.961
 Vibration    17          0.659              1.774              1.780
 Vibration    18          0.666              1.752              1.685
 Vibration    19          0.669              1.744              1.656
 Vibration    20          0.683              1.701              1.502
 Vibration    21          0.686              1.693              1.475
 Vibration    22          0.705              1.638              1.317
 Vibration    23          0.718              1.599              1.221
 Vibration    24          0.760              1.486              0.989
 Vibration    25          0.767              1.468              0.959
 Vibration    26          0.780              1.434              0.904
 Vibration    27          0.793              1.399              0.851
 Vibration    28          0.807              1.366              0.803
 Vibration    29          0.825              1.321              0.743
 Vibration    30          0.843              1.279              0.692
 Vibration    31          0.853              1.255              0.664
 Vibration    32          0.895              1.162              0.566
 Vibration    33          0.913              1.123              0.528

 Normal termination of Gaussian 16 at Sat Mar 31 12:15:55 2018.
