                         Program Version 4.0.1.2 - RELEASE -
|  1> !CPCM DLPNO-CCSD(T) Extrapolate(2/3,cc)  RIJCOSX GRIDX5 TightSCF KDIIS
|  2> %cpcm
|  3> smd true
|  4> solvent "Ethanol"
|  5> end
|  6> # Number of processors
|  7> %pal nprocs 24 end
|  8> # Memory per core
|  9> %maxcore 4000
| 10> %scf maxiter 500
| 11>     end
| 12> % mdci
| 13>    # Loose cut-off
| 14>    #  TCutPairs 1e-3
| 15>    #  TCutPNO 1e-6
| 16>    #  TCutMKN 1e-3
| 17>    # Normal cut-off
| 18>      TCutPairs 1e-4
| 19>      TCutPNO 3.33e-7
| 20>      TCutMKN 1e-3
| 21>    # Tight cut-off
| 22>    #TCutPairs 1e-5
| 23>    #TCutPNO 1e-7
| 24>    #TCutMKN 1e-4
| 25>    # Faster/less disk-IO for large jobs
| 26>    #LocalTrafo 3
| 27>    Density None
| 28> end
| 29> % output
| 30>    printlevel mini
| 31>    print[ P_SCFInfo ] 1
| 32>    print[ P_SCFIterInfo ] 1
| 33>    print[ P_OrbEn ] 0
| 34>    print[ P_Cartesian ] 0
| 35> end
| 36> % elprop
| 37>    Dipole False
| 38> end
| 39> * xyz 2 1
| 40>  C                 -0.67461400    3.21063300   -1.98900300
| 41>  C                 -0.77338400    1.91244100   -1.52605800
| 42>  C                 -0.31170200    1.61863200   -0.24324100
| 43>  C                  0.19289100    2.63628000    0.56814200
| 44>  C                  0.24621000    3.92091400    0.06966300
| 45>  H                 -0.99081500    3.52292500   -2.97615300
| 46>  H                 -1.21147800    1.15706300   -2.16936400
| 47>  H                  0.55467200    2.44194200    1.57127400
| 48>  H                  0.62000500    4.76936000    0.62853700
| 49>  P                 -0.42584600   -0.08065200    0.43456300
| 50>  C                 -2.22695200   -0.36692400    0.24269200
| 51>  C                 -3.14558400    0.61023600    0.65449300
| 52>  C                 -2.69882800   -1.55134900   -0.33324700
| 53>  C                 -4.51112900    0.40022300    0.49919700
| 54>  H                 -2.79876500    1.53866700    1.10358400
| 55>  C                 -4.06931500   -1.75857000   -0.49036900
| 56>  H                 -2.00918500   -2.32204700   -0.66484300
| 57>  H                 -5.21493600    1.16114400    0.82410000
| 58>  H                 -4.42562000   -2.68115600   -0.93960800
| 59>  C                  1.89612600    0.00028200    0.38901300
| 60>  C                  2.57727100    0.66814900   -0.62903400
| 61>  C                  2.59269700   -0.34700400    1.54684400
| 62>  C                  3.91712800    1.02703600   -0.48062300
| 63>  H                  2.07030900    0.91879300   -1.56098700
| 64>  C                  3.93522900    0.00465800    1.70332900
| 65>  H                  2.09551300   -0.89760500    2.34214100
| 66>  H                  4.42893200    1.55640400   -1.28103000
| 67>  H                  4.46209500   -0.26518600    2.61579500
| 68>  O                 -0.20853100   -0.06781400    2.01572500
| 69>  C                  0.41525100   -1.39487100   -0.39123600
| 70>  C                  0.62882200   -1.43695800   -1.80729500
| 71>  C                  0.66357300   -2.60546700    0.34010500
| 72>  C                  1.29699900   -2.49506500   -2.34674800
| 73>  H                  0.30649100   -0.63579600   -2.45993600
| 74>  C                  1.32437400   -3.62720300   -0.26792200
| 75>  H                  0.37232400   -2.70538100    1.37902300
| 76>  H                  1.52889800   -2.56676000   -3.40251200
| 77>  H                  1.57801100   -4.54989600    0.23965000
| 78>  C                 -1.13841000   -0.60557000    2.98559400
| 79>  H                 -0.54814700   -0.73154600    3.89351500
| 80>  H                 -1.94863600    0.10495700    3.15720900
| 81>  H                 -1.53444000   -1.56939100    2.66051700
| 82>  N                 -0.17360200    4.15946900   -1.18450100
| 83>  N                  1.67574000   -3.54517500   -1.57764600
| 84>  C                  4.59980400    0.69838800    0.69163700
| 85>  H                  5.64506600    0.97153000    0.81088600
| 86>  C                 -4.97432900   -0.78563500   -0.07449700
| 87>  H                 -6.04151600   -0.94780600   -0.19832400
| 88>  H                 -0.11848800    5.11352900   -1.53942800
| 89>  H                  2.14791700   -4.33104100   -2.01188100
| 90> *
| 91>
| 92>                          ****END OF INPUT****
 Total Charge           Charge          ....    2
 Multiplicity           Mult            ....    1
 Number of Electrons    NEL             ....  196
E(0)                                       ...  -1408.573195506
E(0)                                       ...  -1408.573195506
E(CORR)(strong-pairs)                      ...     -3.753752659
E(CORR)(weak-pairs)                        ...     -0.034420390
E(CORR)(corrected)                         ...     -3.788173049
E(TOT)                                     ...  -1412.361368555
 Multiplicity           Mult            ....    1
 Number of Electrons    NEL             ....  196
 Basis Dimension        Dim             .... 1136
E(0)                                       ...  -1408.868654135
E(CORR)(strong-pairs)                      ...     -4.469455687
E(CORR)(weak-pairs)                        ...     -0.044257168
E(CORR)(corrected)                         ...     -4.513712855
E(TOT)                                     ...  -1413.382366990
E(CCSD(T))                                 ...  -1413.611266792
FINAL SINGLE POINT ENERGY     -1414.173223905777
                             ****ORCA TERMINATED NORMALLY****
TOTAL RUN TIME: 0 days 7 hours 7 minutes 4 seconds 68 msec
