 Gaussian 16, Revision A.03,
 Gaussian 16:  ES64L-G16RevA.03 25-Dec-2016

 ----------------------------------------------------------------------
 # opt=(calcfc,ts,noeigentest,maxcycle=600) scrf=(solvent=ethanol,smd)
 freq=noraman wb97xd/6-31+g(d) geom=connectivity
 ----------------------------------------------------------------------

 -------------------
 Title Card Required
 -------------------
 Symbolic Z-matrix:
 Charge =  2 Multiplicity = 1

 SCF Done:  E(RwB97XD) =  -1415.73182095     A.U. after   18 cycles
 SCF Done:  E(RwB97XD) =  -1415.73172302     A.U. after   15 cycles
 SCF Done:  E(RwB97XD) =  -1415.73172500     A.U. after   13 cycles
 SCF Done:  E(RwB97XD) =  -1415.73172422     A.U. after   13 cycles
 SCF Done:  E(RwB97XD) =  -1415.73172513     A.U. after   13 cycles
 SCF Done:  E(RwB97XD) =  -1415.73172519     A.U. after    9 cycles
 Optimization completed on the basis of negligible forces.
    -- Stationary point found.
 Normal termination of Gaussian 16 at Thu Mar 29 02:48:31 2018.

 ----------------------------------------------------------------------
 #N Geom=AllCheck Guess=TCheck SCRF=Check GenChk RwB97XD/6-31+G(d) Freq
 ----------------------------------------------------------------------

 Structure from the checkpoint file:  "T443teqeeSazng.chk"
 -------------------
 Title Card Required
 -------------------
 Charge =  2 Multiplicity = 1

                         Standard orientation:
 ---------------------------------------------------------------------
 Center     Atomic      Atomic             Coordinates (Angstroms)
 Number     Number       Type             X           Y           Z
 ---------------------------------------------------------------------
      1          6           0       -1.685289    2.764134   -1.835781
      2          6           0       -0.672209    1.993047   -1.273095
      3          6           0       -0.790095    1.540451    0.048519
      4          6           0       -1.929985    1.862391    0.796674
      5          6           0       -2.937316    2.635648    0.226302
      6          1           0       -1.586638    3.116215   -2.858545
      7          1           0        0.205603    1.747478   -1.864861
      8          1           0       -2.034762    1.508253    1.817372
      9          1           0       -3.817370    2.886621    0.811683
     10         15           0        0.389983    0.336965    0.682946
     11          6           0       -1.575640   -1.470531   -0.176713
     12          6           0       -2.132275   -1.622006    1.101812
     13          6           0       -2.421750   -1.098079   -1.227766
     14          6           0       -3.472595   -1.378897    1.299949
     15          1           0       -1.533096   -1.896838    1.962508
     16          6           0       -3.756719   -0.856482   -0.980237
     17          1           0       -2.066055   -0.988812   -2.244313
     18          1           0       -3.962195   -1.466960    2.261250
     19          1           0       -4.460920   -0.551720   -1.743791
     20          6           0        2.069434    0.903261    0.318356
     21          6           0        3.095972   -0.048360    0.261653
     22          6           0        2.366019    2.262043    0.143218
     23          6           0        4.406722    0.354415    0.022259
     24          1           0        2.879237   -1.101405    0.414001
     25          6           0        3.678497    2.657726   -0.097164
     26          1           0        1.580956    3.011000    0.195774
     27          6           0        4.696483    1.705688   -0.161409
     28          1           0        5.199597   -0.386698   -0.020959
     29          1           0        3.906142    3.711031   -0.233494
     30          1           0        5.719192    2.019248   -0.351722
     31          6           0       -2.819550    3.082245   -1.089626
     32          1           0       -3.610309    3.681108   -1.532811
     33          8           0        0.142833    0.436443    2.288844
     34          6           0       -0.096445   -1.666242   -0.397675
     35          6           0        0.504629   -2.811234    0.275510
     36          6           0        0.452634   -1.419981   -1.721505
     37          6           0        1.607053   -3.422320   -0.222682
     38          1           0        0.082048   -3.189617    1.198242
     39          6           0        1.573345   -2.056857   -2.147189
     40          1           0        0.025750   -0.661270   -2.366421
     41          1           0        2.077337   -4.265601    0.268585
     42          1           0        2.031841   -1.846585   -3.106125
     43          7           0        2.168499   -3.022322   -1.398076
     44          6           0        0.850498   -0.467061    3.160015
     45          1           0        0.513990   -0.229388    4.169468
     46          1           0        0.606090   -1.505579    2.922190
     47          1           0        1.929954   -0.303524    3.082896
     48          7           0       -4.239505   -1.000748    0.263363
     49          1           0       -5.228021   -0.817913    0.427483
     50          1           0        2.977767   -3.511574   -1.760898
 ---------------------------------------------------------------------

 SCF Done:  E(RwB97XD) =  -1415.73172519     A.U. after    2 cycles

 The electronic state is 1-A.
 Alpha  occ. eigenvalues --  -77.34074 -19.33000 -14.58058 -14.53282 -10.40022
 Alpha  occ. eigenvalues --  -10.40021 -10.39938 -10.38560 -10.37405 -10.37246
 Alpha  occ. eigenvalues --  -10.35709 -10.35424 -10.35347 -10.33945 -10.33910
 Alpha  occ. eigenvalues --  -10.33049 -10.32993 -10.32922 -10.32763 -10.32723
 Alpha  occ. eigenvalues --  -10.32584 -10.32433 -10.32240 -10.32050 -10.32044
 Alpha  occ. eigenvalues --  -10.32042 -10.32024  -6.76251  -4.91244  -4.90942
 Alpha  occ. eigenvalues --   -4.90723  -1.17131  -1.14868  -1.10800  -0.99610
 Alpha  occ. eigenvalues --   -0.98333  -0.97812  -0.93173  -0.92732  -0.90048
 Alpha  occ. eigenvalues --   -0.89312  -0.86843  -0.86744  -0.86384  -0.82606
 Alpha  occ. eigenvalues --   -0.81880  -0.79601  -0.75851  -0.75411  -0.74446
 Alpha  occ. eigenvalues --   -0.72111  -0.71785  -0.71274  -0.71104  -0.68608
 Alpha  occ. eigenvalues --   -0.67772  -0.64311  -0.63274  -0.62843  -0.62207
 Alpha  occ. eigenvalues --   -0.59945  -0.59544  -0.58422  -0.57952  -0.57212
 Alpha  occ. eigenvalues --   -0.57105  -0.56603  -0.56138  -0.55825  -0.55422
 Alpha  occ. eigenvalues --   -0.55035  -0.54726  -0.54170  -0.53148  -0.52661
 Alpha  occ. eigenvalues --   -0.52090  -0.51792  -0.51169  -0.50171  -0.49264
 Alpha  occ. eigenvalues --   -0.48213  -0.48005  -0.47226  -0.46362  -0.45864
 Alpha  occ. eigenvalues --   -0.44626  -0.44239  -0.43845  -0.43306  -0.41473
 Alpha  occ. eigenvalues --   -0.39556  -0.38936  -0.37838  -0.35796  -0.35409
 Alpha  occ. eigenvalues --   -0.35023  -0.34738  -0.28559
 Alpha virt. eigenvalues --   -0.04207  -0.00249   0.00102   0.01505   0.03546
 Alpha virt. eigenvalues --    0.03602   0.04394   0.04496   0.05041   0.05571
 Alpha virt. eigenvalues --    0.06188   0.06592   0.07468   0.07810   0.08098

 Mulliken charges:
               1
     1  C   -0.652959
     2  C   -0.054851
     3  C    0.032472
     4  C    0.062761
     5  C   -0.336476
     6  H    0.257415
     7  H    0.280904
     8  H    0.269508
     9  H    0.255149
    10  P    0.071351
    11  C    0.095563
    12  C    0.778186
    13  C    0.754048
    14  C   -0.945364
    15  H    0.314533
    16  C   -0.679658
    17  H    0.296388
    18  H    0.319305
    19  H    0.322607
    20  C   -0.686292
    21  C    0.172192
    22  C    0.489754
    23  C   -0.423818
    24  H    0.262284
    25  C   -0.465738
    26  H    0.271534
    27  C   -0.195463
    28  H    0.256988
    29  H    0.259432
    30  H    0.259229
    31  C   -0.274436
    32  H    0.255435
    33  O   -0.267626
    34  C   -1.051259
    35  C    1.137463
    36  C    0.303381
    37  C   -0.739040
    38  H    0.270197
    39  C   -0.981225
    40  H    0.286015
    41  H    0.293652
    42  H    0.292798
    43  N   -0.420296
    44  C   -0.346539
    45  H    0.259197
    46  H    0.266867
    47  H    0.262099
    48  N   -0.298098
    49  H    0.567642
    50  H    0.542788
 Sum of Mulliken charges =   2.00000

 Dipole moment (field-independent basis, Debye):
    X=             -8.4105    Y=            -10.3367    Z=             -1.2071  Tot=             13.3806
 Quadrupole moment (field-independent basis, Debye-Ang):
   XX=            -39.9991   YY=           -115.9035   ZZ=           -124.6164
   XY=             -8.4898   XZ=            -11.9597   YZ=             -6.7370

  Exact polarizability: 508.102 -64.811 446.791 -33.437  -2.729 392.900
 Approx polarizability: 375.250 -48.959 322.957 -28.158 -10.118 317.839

 ******    1 imaginary frequencies (negative Signs) ******

                      1                      2                      3
                      A                      A                      A
 Frequencies --   -239.5073                20.1484                28.2451
 Red. masses --      8.3911                 4.7852                 4.1294
 Frc consts  --      0.2836                 0.0011                 0.0019
 IR Inten    --    794.7179                 1.1134                 0.8117

                      4                      5                      6
                      A                      A                      A
 Frequencies --     47.6247                62.2960                64.2236
 Red. masses --      5.1209                 4.4829                 4.9913
 Frc consts  --      0.0068                 0.0103                 0.0121
 IR Inten    --      5.0486                 0.0662                14.8057

                      7                      8                      9
                      A                      A                      A
 Frequencies --     85.5650                91.7433                99.3709
 Red. masses --      4.4164                 2.8226                 4.4415
 Frc consts  --      0.0191                 0.0140                 0.0258
 IR Inten    --      0.7485                 8.2738                 5.0098

                     10                     11                     12
                      A                      A                      A
 Frequencies --    109.7285               114.0357               142.0395
 Red. masses --      2.5824                 2.5425                 4.0332
 Frc consts  --      0.0183                 0.0195                 0.0479
 IR Inten    --      4.3966                 1.1490                 0.6911

                     13                     14                     15
                      A                      A                      A
 Frequencies --    149.7753               165.9569               191.0466
 Red. masses --      5.1343                 3.4818                 3.4240
 Frc consts  --      0.0679                 0.0565                 0.0736
 IR Inten    --      2.6333                 2.7119                 4.7636

                     16                     17                     18
                      A                      A                      A
 Frequencies --    211.8461               217.7382               253.6002
 Red. masses --      2.8583                 4.6607                 3.6072
 Frc consts  --      0.0756                 0.1302                 0.1367
 IR Inten    --      5.4202                 3.6018                18.1001

                     19                     20                     21
                      A                      A                      A
 Frequencies --    259.5976               273.4871               315.7021
 Red. masses --      4.9390                 4.8132                 5.6705
 Frc consts  --      0.1961                 0.2121                 0.3330
 IR Inten    --     10.5030                 9.1221                 4.4701

                     22                     23                     24
                      A                      A                      A
 Frequencies --    324.9844               330.9800               383.4842
 Red. masses --      4.5123                 4.9439                 3.9009
 Frc consts  --      0.2808                 0.3191                 0.3380
 IR Inten    --      6.2741                34.7850                41.8728

                     25                     26                     27
                      A                      A                      A
 Frequencies --    412.4215               413.4495               418.9478
 Red. masses --      3.0971                 3.0542                 2.9418
 Frc consts  --      0.3104                 0.3076                 0.3042
 IR Inten    --     14.2116                13.5112                 0.7303

                     28                     29                     30
                      A                      A                      A
 Frequencies --    420.7732               436.8653               474.2246
 Red. masses --      3.5857                 4.9816                 4.9965
 Frc consts  --      0.3740                 0.5602                 0.6620
 IR Inten    --     14.9418                38.2334                35.5986

                     31                     32                     33
                      A                      A                      A
 Frequencies --    478.6622               510.3192               539.2595
 Red. masses --      3.7069                 4.9316                 5.3976
 Frc consts  --      0.5004                 0.7567                 0.9248
 IR Inten    --      3.5032               141.1475               176.2591

                     34                     35                     36
                      A                      A                      A
 Frequencies --    544.7865               606.1966               623.6138
 Red. masses --      3.2448                 2.8359                 2.1207
 Frc consts  --      0.5674                 0.6140                 0.4859
 IR Inten    --      5.2421               347.3758               154.6620

                     37                     38                     39
                      A                      A                      A
 Frequencies --    632.3747               633.7947               651.3415
 Red. masses --      6.3555                 6.3425                 6.2773
 Frc consts  --      1.4974                 1.5011                 1.5691
 IR Inten    --      0.5461                 1.8608                 0.8068

                     40                     41                     42
                      A                      A                      A
 Frequencies --    668.2758               701.0079               704.8274
 Red. masses --      6.1652                 2.7026                 4.9114
 Frc consts  --      1.6222                 0.7825                 1.4376
 IR Inten    --      2.1844                31.4214                 0.4545

                     43                     44                     45
                      A                      A                      A
 Frequencies --    713.2785               719.2246               741.5107
 Red. masses --      2.0190                 2.3588                 4.2602
 Frc consts  --      0.6052                 0.7189                 1.3801
 IR Inten    --     73.8639               114.0489                18.7102

                     46                     47                     48
                      A                      A                      A
 Frequencies --    757.2269               762.3808               767.2683
 Red. masses --      2.4836                 4.2911                 1.7239
 Frc consts  --      0.8391                 1.4695                 0.5979
 IR Inten    --     78.8422                65.4891               143.0955

                     49                     50                     51
                      A                      A                      A
 Frequencies --    773.5215               777.6289               792.1186
 Red. masses --      1.4681                 1.6778                 4.7583
 Frc consts  --      0.5176                 0.5978                 1.7591
 IR Inten    --    221.8747                13.0208               227.4839

                     52                     53                     54
                      A                      A                      A
 Frequencies --    812.7083               839.1203               881.3566
 Red. masses --      1.6024                 1.2629                 1.2437
 Frc consts  --      0.6236                 0.5239                 0.5692
 IR Inten    --    154.0765                46.0326                 0.7406

                     55                     56                     57
                      A                      A                      A
 Frequencies --    888.2775               889.6636               929.5287
 Red. masses --      1.2743                 1.2392                 1.4095
 Frc consts  --      0.5924                 0.5779                 0.7176
 IR Inten    --      8.0355                 1.1067                12.4134

                     58                     59                     60
                      A                      A                      A
 Frequencies --    971.1304               972.6217               977.2580
 Red. masses --      1.3815                 1.3526                 4.1015
 Frc consts  --      0.7676                 0.7539                 2.3079
 IR Inten    --      5.8334                 5.3934               126.9312

                     61                     62                     63
                      A                      A                      A
 Frequencies --    998.7376              1006.4283              1018.3958
 Red. masses --      1.2694                 1.3267                 1.3543
 Frc consts  --      0.7460                 0.7917                 0.8276
 IR Inten    --      0.7105                 3.4737                 2.1940

                     64                     65                     66
                      A                      A                      A
 Frequencies --   1018.6915              1020.9323              1025.6086
 Red. masses --      1.7133                 4.9523                 1.4234
 Frc consts  --      1.0475                 3.0412                 0.8822
 IR Inten    --      2.5691                 8.8328                 0.0656

                     67                     68                     69
                      A                      A                      A
 Frequencies --   1026.9465              1028.0895              1040.8886
 Red. masses --      3.0475                 1.3952                 4.7803
 Frc consts  --      1.8936                 0.8689                 3.0515
 IR Inten    --      4.7859                 1.2923                 7.4277

                     70                     71                     72
                      A                      A                      A
 Frequencies --   1042.7110              1043.3111              1052.8324
 Red. masses --      1.3148                 1.3378                 5.0155
 Frc consts  --      0.8423                 0.8579                 3.2756
 IR Inten    --      0.0966                 0.1447                 1.9363

                     73                     74                     75
                      A                      A                      A
 Frequencies --   1062.3625              1065.3396              1067.7437
 Red. masses --      2.8635                 2.7728                 3.3817
 Frc consts  --      1.9041                 1.8541                 2.2716
 IR Inten    --      7.0708                17.6754               221.5237

                     76                     77                     78
                      A                      A                      A
 Frequencies --   1070.5614              1112.2845              1124.8756
 Red. masses --      4.2002                 2.1382                 1.7345
 Frc consts  --      2.8363                 1.5586                 1.2931
 IR Inten    --    277.4401                 6.6847                 6.1143

                     79                     80                     81
                      A                      A                      A
 Frequencies --   1128.2507              1134.5296              1141.5794
 Red. masses --      1.6935                 1.9470                 2.5716
 Frc consts  --      1.2701                 1.4766                 1.9746
 IR Inten    --     17.0450                 4.4133                61.9252

                     82                     83                     84
                      A                      A                      A
 Frequencies --   1149.5095              1160.9499              1194.5043
 Red. masses --      3.1316                 1.6228                 1.1016
 Frc consts  --      2.4381                 1.2886                 0.9261
 IR Inten    --     88.1816                13.7608                 0.8324

                     85                     86                     87
                      A                      A                      A
 Frequencies --   1195.1318              1199.7392              1221.3639
 Red. masses --      1.1018                 1.2489                 1.3130
 Frc consts  --      0.9272                 1.0592                 1.1540
 IR Inten    --      1.2066                 5.3261                33.1824

                     88                     89                     90
                      A                      A                      A
 Frequencies --   1229.0279              1233.2520              1245.4221
 Red. masses --      1.1502                 1.1472                 1.1727
 Frc consts  --      1.0236                 1.0280                 1.0717
 IR Inten    --     16.3648                 3.2388                60.2202

                     91                     92                     93
                      A                      A                      A
 Frequencies --   1268.4605              1284.5611              1292.2165
 Red. masses --      1.1661                 1.1660                 1.8359
 Frc consts  --      1.1055                 1.1336                 1.8062
 IR Inten    --     18.9271                 2.4508                17.8451

                     94                     95                     96
                      A                      A                      A
 Frequencies --   1301.7288              1318.6813              1335.4646
 Red. masses --      2.2133                 1.6660                 4.3968
 Frc consts  --      2.2097                 1.7068                 4.6201
 IR Inten    --     21.0730                 8.5519                 1.4297

                     97                     98                     99
                      A                      A                      A
 Frequencies --   1341.9186              1363.4349              1381.5244
 Red. masses --      4.8131                 2.1184                 1.4404
 Frc consts  --      5.1065                 2.3202                 1.6197
 IR Inten    --      2.8956                26.2079                14.6041

                    100                    101                    102
                      A                      A                      A
 Frequencies --   1387.1652              1414.8026              1444.6259
 Red. masses --      1.4157                 1.8800                 1.6957
 Frc consts  --      1.6050                 2.2171                 2.0850
 IR Inten    --      3.9725                31.3274                 4.6994

                    103                    104                    105
                      A                      A                      A
 Frequencies --   1486.8689              1491.9187              1503.8717
 Red. masses --      2.1492                 2.1889                 1.8292
 Frc consts  --      2.7995                 2.8706                 2.4374
 IR Inten    --     68.1381                59.3682               136.1195

                    106                    107                    108
                      A                      A                      A
 Frequencies --   1512.3225              1514.4080              1524.7667
 Red. masses --      1.0453                 1.1127                 1.0661
 Frc consts  --      1.4086                 1.5035                 1.4603
 IR Inten    --     35.0405                 1.3520                13.6689

                    109                    110                    111
                      A                      A                      A
 Frequencies --   1542.5238              1544.4347              1545.9987
 Red. masses --      2.0747                 3.0397                 2.1716
 Frc consts  --      2.9085                 4.2719                 3.0580
 IR Inten    --      3.4620                26.0034                 7.4638

                    112                    113                    114
                      A                      A                      A
 Frequencies --   1569.7901              1578.3598              1641.3508
 Red. masses --      2.1885                 2.8266                 2.6606
 Frc consts  --      3.1775                 4.1489                 4.2231
 IR Inten    --     50.9083               132.9970                45.5316

                    115                    116                    117
                      A                      A                      A
 Frequencies --   1654.4639              1657.4661              1671.8369
 Red. masses --      5.2582                 5.4111                 5.4652
 Frc consts  --      8.4802                 8.7583                 9.0000
 IR Inten    --      3.9782                14.1937                18.9540

                    118                    119                    120
                      A                      A                      A
 Frequencies --   1674.7501              1681.9997              1715.4682
 Red. masses --      5.4167                 3.8959                 5.3139
 Frc consts  --      8.9513                 6.4940                 9.2136
 IR Inten    --      1.3969                99.0156              1001.8250

                    121                    122                    123
                      A                      A                      A
 Frequencies --   1721.3985              3089.1851              3180.6946
 Red. masses --      5.4020                 1.0309                 1.1058
 Frc consts  --      9.4312                 5.7961                 6.5913
 IR Inten    --    189.6634                51.0129                20.6019

                    124                    125                    126
                      A                      A                      A
 Frequencies --   3208.7705              3219.4956              3221.2583
 Red. masses --      1.1076                 1.0872                 1.0874
 Frc consts  --      6.7189                 6.6397                 6.6481
 IR Inten    --     12.1767                 0.2994                 0.1774

                    127                    128                    129
                      A                      A                      A
 Frequencies --   3225.8768              3228.1543              3233.1354
 Red. masses --      1.0897                 1.0899                 1.0935
 Frc consts  --      6.6811                 6.6920                 6.7345
 IR Inten    --      3.5542                 1.9955                14.2389

                    130                    131                    132
                      A                      A                      A
 Frequencies --   3235.4042              3241.2246              3243.0463
 Red. masses --      1.0939                 1.0965                 1.0975
 Frc consts  --      6.7465                 6.7869                 6.8011
 IR Inten    --      9.9930                13.5876                22.1155

                    133                    134                    135
                      A                      A                      A
 Frequencies --   3246.9532              3253.5425              3257.7165
 Red. masses --      1.0970                 1.0936                 1.0906
 Frc consts  --      6.8139                 6.8206                 6.8191
 IR Inten    --     13.3857                11.9979                 0.5887

                    136                    137                    138
                      A                      A                      A
 Frequencies --   3257.9718              3271.3869              3277.3101
 Red. masses --      1.0902                 1.0913                 1.0982
 Frc consts  --      6.8178                 6.8810                 6.9495
 IR Inten    --      1.3657                 3.2461                 0.5884

                    139                    140                    141
                      A                      A                      A
 Frequencies --   3280.2032              3283.1951              3295.7464
 Red. masses --      1.0989                 1.0919                 1.0983
 Frc consts  --      6.9665                 6.9348                 7.0291
 IR Inten    --      1.2718                 2.2229                10.5197

                    142                    143                    144
                      A                      A                      A
 Frequencies --   3297.6153              3604.7185              3659.2028
 Red. masses --      1.0999                 1.0817                 1.0806
 Frc consts  --      7.0469                 8.2814                 8.5245
 IR Inten    --      3.0125               381.0861               465.6540

 - Thermochemistry -
 -------------------
 Temperature   298.150 Kelvin.  Pressure   1.00000 Atm.
 Atom     1 has atomic number  6 and mass  12.00000

 Molecular mass:   374.15480 amu.
 Principal axes and moments of inertia in atomic units:
                           1         2         3
     Eigenvalues --  6786.50748********************
           X            0.99989  -0.01466  -0.00086
           Y            0.01464   0.99965  -0.02204
           Z            0.00118   0.02203   0.99976
 This molecule is an asymmetric top.
 Rotational symmetry number  1.
 Warning -- assumption of classical behavior for rotation
           may cause significant error
 Rotational temperatures (Kelvin)      0.01276     0.00852     0.00677
 Rotational constants (GHZ):           0.26593     0.17759     0.14107
    1 imaginary frequencies ignored.
 Zero-point vibrational energy    1097696.8 (Joules/Mol)
                                  262.35583 (Kcal/Mol)
 Warning -- explicit consideration of  34 degrees of freedom as
           vibrations may cause significant error
 Vibrational temperatures:     28.99    40.64    68.52    89.63    92.40
          (Kelvin)            123.11   132.00   142.97   157.87   164.07
                              204.36   215.49   238.77   274.87   304.80
                              313.28   364.87   373.50   393.49   454.22
                              467.58   476.21   551.75   593.38   594.86
                              602.77   605.40   628.55   682.30   688.69
                              734.24   775.87   783.83   872.18   897.24
                              909.85   911.89   937.14   961.50  1008.59
                             1014.09  1026.25  1034.80  1066.87  1089.48
                             1096.90  1103.93  1112.92  1118.83  1139.68
                             1169.31  1207.31  1268.08  1278.03  1280.03
                             1337.38  1397.24  1399.39  1406.06  1436.96
                             1448.03  1465.24  1465.67  1468.89  1475.62
                             1477.55  1479.19  1497.61  1500.23  1501.09
                             1514.79  1528.50  1532.79  1536.25  1540.30
                             1600.33  1618.45  1623.30  1632.33  1642.48
                             1653.89  1670.35  1718.63  1719.53  1726.16
                             1757.27  1768.30  1774.37  1791.88  1825.03
                             1848.20  1859.21  1872.90  1897.29  1921.44
                             1930.72  1961.68  1987.71  1995.82  2035.59
                             2078.49  2139.27  2146.54  2163.74  2175.89
                             2178.90  2193.80  2219.35  2222.10  2224.35
                             2258.58  2270.91  2361.54  2380.40  2384.72
                             2405.40  2409.59  2420.02  2468.18  2476.71
                             4444.65  4576.31  4616.71  4632.14  4634.67
                             4641.32  4644.59  4651.76  4655.02  4663.40
                             4666.02  4671.64  4681.12  4687.13  4687.49
                             4706.80  4715.32  4719.48  4723.79  4741.84
                             4744.53  5186.39  5264.78

 Zero-point correction=                           0.418091 (Hartree/Particle)
 Thermal correction to Energy=                    0.441192
 Thermal correction to Enthalpy=                  0.442136
 Thermal correction to Gibbs Free Energy=         0.364803
 Sum of electronic and zero-point Energies=          -1415.313635
 Sum of electronic and thermal Energies=             -1415.290533
 Sum of electronic and thermal Enthalpies=           -1415.289589
 Sum of electronic and thermal Free Energies=        -1415.366922

                     E (Thermal)             CV                S
                      KCal/Mol        Cal/Mol-Kelvin    Cal/Mol-Kelvin
 Total                  276.852             91.225            162.762
 Electronic               0.000              0.000              0.000
 Translational            0.889              2.981             43.651
 Rotational               0.889              2.981             35.133
 Vibrational            275.075             85.264             83.978
 Vibration     1          0.593              1.986              6.620
 Vibration     2          0.593              1.984              5.949
 Vibration     3          0.595              1.978              4.914
 Vibration     4          0.597              1.972              4.383
 Vibration     5          0.597              1.971              4.323
 Vibration     6          0.601              1.959              3.759
 Vibration     7          0.602              1.955              3.623
 Vibration     8          0.604              1.950              3.467
 Vibration     9          0.606              1.941              3.274
 Vibration    10          0.607              1.938              3.199
 Vibration    11          0.616              1.911              2.776
 Vibration    12          0.618              1.903              2.675
 Vibration    13          0.624              1.884              2.481
 Vibration    14          0.634              1.852              2.218
 Vibration    15          0.643              1.823              2.028
 Vibration    16          0.646              1.814              1.978
 Vibration    17          0.665              1.757              1.705
 Vibration    18          0.668              1.747              1.664
 Vibration    19          0.676              1.722              1.574
 Vibration    20          0.703              1.644              1.332
 Vibration    21          0.709              1.626              1.285
 Vibration    22          0.713              1.614              1.255
 Vibration    23          0.753              1.505              1.025
 Vibration    24          0.776              1.443              0.918
 Vibration    25          0.777              1.441              0.915
 Vibration    26          0.782              1.429              0.896
 Vibration    27          0.783              1.425              0.889
 Vibration    28          0.797              1.390              0.837
 Vibration    29          0.831              1.307              0.726
 Vibration    30          0.835              1.297              0.714
 Vibration    31          0.865              1.227              0.633
 Vibration    32          0.894              1.163              0.567
 Vibration    33          0.900              1.151              0.555
 Vibration    34          0.965              1.019              0.439

 Optimization completed.
    -- Stationary point found.
 Normal termination of Gaussian 16 at Thu Mar 29 04:14:01 2018.
