                         Program Version 4.0.1.2 - RELEASE -
|  1> !CPCM DLPNO-CCSD(T) Extrapolate(2/3,cc)  RIJCOSX GRIDX5 TightSCF KDIIS
|  2> %cpcm
|  3> smd true
|  4> solvent "Ethanol"
|  5> end
|  6> # Number of processors
|  7> %pal nprocs 24 end
|  8> # Memory per core
|  9> %maxcore 4000
| 10> %scf maxiter 500
| 11>     end
| 12> % mdci
| 13>    # Loose cut-off
| 14>    #  TCutPairs 1e-3
| 15>    #  TCutPNO 1e-6
| 16>    #  TCutMKN 1e-3
| 17>    # Normal cut-off
| 18>      TCutPairs 1e-4
| 19>      TCutPNO 3.33e-7
| 20>      TCutMKN 1e-3
| 21>    # Tight cut-off
| 22>    #TCutPairs 1e-5
| 23>    #TCutPNO 1e-7
| 24>    #TCutMKN 1e-4
| 25>    # Faster/less disk-IO for large jobs
| 26>    #LocalTrafo 3
| 27>    Density None
| 28> end
| 29> % output
| 30>    printlevel mini
| 31>    print[ P_SCFInfo ] 1
| 32>    print[ P_SCFIterInfo ] 1
| 33>    print[ P_OrbEn ] 0
| 34>    print[ P_Cartesian ] 0
| 35> end
| 36> % elprop
| 37>    Dipole False
| 38> end
| 39> * xyz 2 1
| 40>  C                  3.46528400    1.76221400   -1.17492100
| 41>  C                  2.33235700    0.96063600   -1.06941300
| 42>  C                  1.11321000    1.51820300   -0.65940300
| 43>  C                  1.03584900    2.88641200   -0.36715300
| 44>  C                  2.17414400    3.68138700   -0.47040100
| 45>  H                  4.40750900    1.32562800   -1.49324900
| 46>  H                  2.40068900   -0.09554200   -1.31701100
| 47>  H                  0.09365200    3.33593000   -0.06798600
| 48>  H                  2.11111300    4.74183600   -0.24382200
| 49>  P                 -0.32118900    0.41593400   -0.58736200
| 50>  C                 -1.57783100    1.13083600    0.49016000
| 51>  C                 -2.92714300    0.98847600    0.14174900
| 52>  C                 -1.23455200    1.67570600    1.73586400
| 53>  C                 -3.92109900    1.41830200    1.01808500
| 54>  H                 -3.20327300    0.55117600   -0.81395600
| 55>  C                 -2.23275100    2.09860800    2.60767500
| 56>  H                 -0.19178400    1.77592600    2.02603700
| 57>  H                 -4.96558300    1.31507300    0.73826400
| 58>  H                 -1.96132200    2.52965300    3.56705700
| 59>  C                  1.07415900   -1.86354700    0.60308000
| 60>  C                  1.20423700   -1.18166000    1.82129800
| 61>  C                  2.17528400   -2.58386400    0.12819800
| 62>  C                  2.40121800   -1.20524800    2.49939600
| 63>  H                  0.38522200   -0.61935800    2.25422300
| 64>  C                  3.35649500   -2.57986100    0.84092500
| 65>  H                  2.13662100   -3.15734300   -0.78927000
| 66>  H                  2.57028300   -0.69177700    3.43741000
| 67>  H                  4.24630700   -3.11049500    0.52626300
| 68>  C                  3.38747200    3.12054400   -0.86909100
| 69>  H                  4.27324000    3.74496100   -0.94582100
| 70>  O                 -0.96425800    0.33103000   -2.06856800
| 71>  C                 -0.22522300   -1.83287400   -0.16325100
| 72>  C                 -0.25955200   -2.41638100   -1.49379100
| 73>  C                 -1.42794500   -2.08788600    0.61886600
| 74>  C                 -1.41650300   -2.89419400   -2.01630000
| 75>  H                  0.61819300   -2.38847800   -2.12856800
| 76>  C                 -2.54991300   -2.57773400    0.03183700
| 77>  H                 -1.45977700   -1.84678000    1.67497600
| 78>  H                 -1.48617700   -3.27813500   -3.02687300
| 79>  H                 -3.47159900   -2.73712500    0.57847200
| 80>  C                 -1.19122700    1.51542600   -2.85870800
| 81>  H                 -0.23455600    1.94309500   -3.17083400
| 82>  H                 -1.75574800    1.18641900   -3.73200900
| 83>  H                 -1.77030800    2.25445600   -2.29712100
| 84>  N                  3.43797300   -1.89351900    1.99064000
| 85>  N                 -2.56047900   -2.93277500   -1.28035400
| 86>  C                 -3.57573800    1.97303300    2.24905300
| 87>  H                 -4.35244600    2.30680700    2.93141800
| 88>  H                 -3.40137700   -3.32740700   -1.68518900
| 89>  H                  4.31913900   -1.90092400    2.50203200
| 90> *
| 91>
| 92>                          ****END OF INPUT****
 Total Charge           Charge          ....    2
 Multiplicity           Mult            ....    1
 Number of Electrons    NEL             ....  196
E(0)                                       ...  -1408.662386011
E(0)                                       ...  -1408.662386011
E(CORR)(strong-pairs)                      ...     -3.741455453
E(CORR)(weak-pairs)                        ...     -0.033090522
E(CORR)(corrected)                         ...     -3.774545975
E(TOT)                                     ...  -1412.436931987
 Multiplicity           Mult            ....    1
 Number of Electrons    NEL             ....  196
 Basis Dimension        Dim             .... 1136
E(0)                                       ...  -1408.952256266
E(CORR)(strong-pairs)                      ...     -4.457323469
E(CORR)(weak-pairs)                        ...     -0.043029655
E(CORR)(corrected)                         ...     -4.500353125
E(TOT)                                     ...  -1413.452609391
E(CCSD(T))                                 ...  -1413.678325170
FINAL SINGLE POINT ENERGY     -1414.238504479933
                             ****ORCA TERMINATED NORMALLY****
TOTAL RUN TIME: 0 days 6 hours 30 minutes 6 seconds 370 msec
