                         Program Version 4.0.1.2 - RELEASE -
|  1> !CPCM DLPNO-CCSD(T) Extrapolate(2/3,cc)  RIJCOSX GRIDX5 TightSCF KDIIS
|  2> %cpcm
|  3> smd true
|  4> solvent "Ethanol"
|  5> end
|  6> # Number of processors
|  7> %pal nprocs 24 end
|  8> # Memory per core
|  9> %maxcore 4000
| 10> %scf maxiter 500
| 11>     end
| 12> % mdci
| 13>    # Loose cut-off
| 14>    #  TCutPairs 1e-3
| 15>    #  TCutPNO 1e-6
| 16>    #  TCutMKN 1e-3
| 17>    # Normal cut-off
| 18>      TCutPairs 1e-4
| 19>      TCutPNO 3.33e-7
| 20>      TCutMKN 1e-3
| 21>    # Tight cut-off
| 22>    #TCutPairs 1e-5
| 23>    #TCutPNO 1e-7
| 24>    #TCutMKN 1e-4
| 25>    # Faster/less disk-IO for large jobs
| 26>    #LocalTrafo 3
| 27>    Density None
| 28> end
| 29> % output
| 30>    printlevel mini
| 31>    print[ P_SCFInfo ] 1
| 32>    print[ P_SCFIterInfo ] 1
| 33>    print[ P_OrbEn ] 0
| 34>    print[ P_Cartesian ] 0
| 35> end
| 36> % elprop
| 37>    Dipole False
| 38> end
| 39> * xyz 2 1
| 40>  C                 -2.46741300   -1.46692900   -3.11694600
| 41>  C                 -1.44580600   -0.64533700   -2.64723600
| 42>  C                 -0.85708900   -0.91067200   -1.40432400
| 43>  C                 -1.32465100   -1.97628100   -0.61922000
| 44>  C                 -2.34225000   -2.79354900   -1.10031600
| 45>  H                 -2.91842800   -1.26239100   -4.08357000
| 46>  H                 -1.11779900    0.19802600   -3.24755600
| 47>  H                 -0.90496200   -2.16878800    0.36543200
| 48>  H                 -2.69650700   -3.62153600   -0.49330400
| 49>  P                  0.33408400    0.24669100   -0.70919600
| 50>  C                  1.90576100   -0.59437800   -0.31708800
| 51>  C                  2.99051100    0.22852700    0.01947900
| 52>  C                  2.05213700   -1.98292900   -0.25192800
| 53>  C                  4.18041800   -0.35001800    0.40898100
| 54>  H                  2.92209800    1.31012400   -0.02473600
| 55>  C                  3.26431800   -2.51250800    0.14196800
| 56>  H                  1.25163800   -2.66340900   -0.51555300
| 57>  H                  5.06328500    0.21321100    0.68382200
| 58>  H                  3.46262800   -3.57477700    0.20902600
| 59>  C                 -1.00491200    0.42143800    1.79753100
| 60>  C                 -0.01197800   -0.28796000    2.48783000
| 61>  C                 -2.34306300    0.08008300    2.00862000
| 62>  C                 -0.34820800   -1.32576300    3.35003200
| 63>  H                  1.03703300   -0.03859200    2.34773900
| 64>  C                 -2.68050700   -0.96053800    2.87445000
| 65>  H                 -3.13830500    0.62277600    1.50863000
| 66>  H                  0.43677400   -1.86629700    3.87167900
| 67>  H                 -3.72672200   -1.21353200    3.02239600
| 68>  C                 -2.91190700   -2.54170800   -2.34848400
| 69>  H                 -3.71012600   -3.17914900   -2.71816000
| 70>  O                  0.70717000    1.33963000   -1.82479300
| 71>  C                 -0.61854700    1.51441700    0.82611600
| 72>  C                 -1.66632400    2.13497800    0.01628400
| 73>  C                  0.39495100    2.46866900    1.27657000
| 74>  C                 -1.53101500    3.39727900   -0.46231400
| 75>  H                 -2.53709500    1.56336600   -0.28329800
| 76>  C                  0.45978900    3.72278000    0.76628400
| 77>  H                  1.12986200    2.17073900    2.01522200
| 78>  H                 -2.27144900    3.85767300   -1.10585200
| 79>  H                  1.21629600    4.43727900    1.06853900
| 80>  C                  1.52454800    1.03793800   -2.98016800
| 81>  H                  1.19930700    1.71972300   -3.76653300
| 82>  H                  2.57209300    1.22251700   -2.73075000
| 83>  H                  1.38999700    0.00205900   -3.30222800
| 84>  N                  4.27616700   -1.68878800    0.45925500
| 85>  H                  5.16249600   -2.10163000    0.74739900
| 86>  C                 -1.68690100   -1.67115600    3.54165000
| 87>  H                 -1.95115500   -2.48487000    4.21128800
| 88>  N                 -0.46415400    4.17360600   -0.12881400
| 89>  H                 -0.41483100    5.12803800   -0.46304900
| 90> *
| 91>
| 92>                          ****END OF INPUT****
 Total Charge           Charge          ....    2
 Multiplicity           Mult            ....    1
 Number of Electrons    NEL             ....  196
E(0)                                       ...  -1408.654822573
E(0)                                       ...  -1408.654822573
E(CORR)(strong-pairs)                      ...     -3.742231683
E(CORR)(weak-pairs)                        ...     -0.033582705
E(CORR)(corrected)                         ...     -3.775814388
E(TOT)                                     ...  -1412.430636961
 Multiplicity           Mult            ....    1
 Number of Electrons    NEL             ....  196
 Basis Dimension        Dim             .... 1136
E(0)                                       ...  -1408.945093594
E(CORR)(strong-pairs)                      ...     -4.457982055
E(CORR)(weak-pairs)                        ...     -0.043561504
E(CORR)(corrected)                         ...     -4.501543559
E(TOT)                                     ...  -1413.446637153
E(CCSD(T))                                 ...  -1413.671672316
FINAL SINGLE POINT ENERGY     -1414.231878586633
                             ****ORCA TERMINATED NORMALLY****
TOTAL RUN TIME: 0 days 6 hours 44 minutes 56 seconds 782 msec
