 Gaussian 16, Revision A.03,
 Gaussian 16:  ES64L-G16RevA.03 25-Dec-2016

 ----------------------------------------------------------------------
 # freq=noraman wb97xd/6-31+g(d) scrf=(solvent=ethanol,smd) geom=connec
 tivity
 ----------------------------------------------------------------------

 -------------------
 Title Card Required
 -------------------
 Symbolic Z-matrix:
 Charge =  2 Multiplicity = 1

                         Standard orientation:
 ---------------------------------------------------------------------
 Center     Atomic      Atomic             Coordinates (Angstroms)
 Number     Number       Type             X           Y           Z
 ---------------------------------------------------------------------
      1          6           0        3.465284    1.762214   -1.174921
      2          6           0        2.332357    0.960636   -1.069413
      3          6           0        1.113210    1.518203   -0.659403
      4          6           0        1.035849    2.886412   -0.367153
      5          6           0        2.174144    3.681387   -0.470401
      6          1           0        4.407509    1.325628   -1.493249
      7          1           0        2.400689   -0.095542   -1.317011
      8          1           0        0.093652    3.335930   -0.067986
      9          1           0        2.111113    4.741836   -0.243822
     10         15           0       -0.321189    0.415934   -0.587362
     11          6           0       -1.577831    1.130836    0.490160
     12          6           0       -2.927143    0.988476    0.141749
     13          6           0       -1.234552    1.675706    1.735864
     14          6           0       -3.921099    1.418302    1.018085
     15          1           0       -3.203273    0.551176   -0.813956
     16          6           0       -2.232751    2.098608    2.607675
     17          1           0       -0.191784    1.775926    2.026037
     18          1           0       -4.965583    1.315073    0.738264
     19          1           0       -1.961322    2.529653    3.567057
     20          6           0        1.074159   -1.863547    0.603080
     21          6           0        1.204237   -1.181660    1.821298
     22          6           0        2.175284   -2.583864    0.128198
     23          6           0        2.401218   -1.205248    2.499396
     24          1           0        0.385222   -0.619358    2.254223
     25          6           0        3.356495   -2.579861    0.840925
     26          1           0        2.136621   -3.157343   -0.789270
     27          1           0        2.570283   -0.691777    3.437410
     28          1           0        4.246307   -3.110495    0.526263
     29          6           0        3.387472    3.120544   -0.869091
     30          1           0        4.273240    3.744961   -0.945821
     31          8           0       -0.964258    0.331030   -2.068568
     32          6           0       -0.225223   -1.832874   -0.163251
     33          6           0       -0.259552   -2.416381   -1.493791
     34          6           0       -1.427945   -2.087886    0.618866
     35          6           0       -1.416503   -2.894194   -2.016300
     36          1           0        0.618193   -2.388478   -2.128568
     37          6           0       -2.549913   -2.577734    0.031837
     38          1           0       -1.459777   -1.846780    1.674976
     39          1           0       -1.486177   -3.278135   -3.026873
     40          1           0       -3.471599   -2.737125    0.578472
     41          6           0       -1.191227    1.515426   -2.858708
     42          1           0       -0.234556    1.943095   -3.170834
     43          1           0       -1.755748    1.186419   -3.732009
     44          1           0       -1.770308    2.254456   -2.297121
     45          7           0        3.437973   -1.893519    1.990640
     46          7           0       -2.560479   -2.932775   -1.280354
     47          6           0       -3.575738    1.973033    2.249053
     48          1           0       -4.352446    2.306807    2.931418
     49          1           0       -3.401377   -3.327407   -1.685189
     50          1           0        4.319139   -1.900924    2.502032
 ---------------------------------------------------------------------

 SCF Done:  E(RwB97XD) =  -1415.73421233     A.U. after   18 cycles

 The electronic state is 1-A.
 Alpha  occ. eigenvalues --  -77.33827 -19.32818 -14.58120 -14.53329 -10.40080
 Alpha  occ. eigenvalues --  -10.39978 -10.39648 -10.38610 -10.37262 -10.37106
 Alpha  occ. eigenvalues --  -10.35533 -10.35425 -10.35370 -10.33992 -10.33746
 Alpha  occ. eigenvalues --  -10.33089 -10.33006 -10.32880 -10.32793 -10.32720
 Alpha  occ. eigenvalues --  -10.32521 -10.32448 -10.32192 -10.32129 -10.32091
 Alpha  occ. eigenvalues --  -10.32006 -10.31959  -6.75998  -4.90992  -4.90690
 Alpha  occ. eigenvalues --   -4.90479  -1.17090  -1.14918  -1.10762  -0.99485
 Alpha  occ. eigenvalues --   -0.98316  -0.97790  -0.93192  -0.92768  -0.89955
 Alpha  occ. eigenvalues --   -0.89059  -0.86858  -0.86687  -0.86340  -0.82598
 Alpha  occ. eigenvalues --   -0.82017  -0.79600  -0.75650  -0.75488  -0.74482
 Alpha  occ. eigenvalues --   -0.72123  -0.71878  -0.71289  -0.71026  -0.68503
 Alpha  occ. eigenvalues --   -0.67671  -0.64296  -0.63104  -0.62768  -0.62231
 Alpha  occ. eigenvalues --   -0.59835  -0.59420  -0.58362  -0.58224  -0.57155
 Alpha  occ. eigenvalues --   -0.56918  -0.56607  -0.56368  -0.55843  -0.55402
 Alpha  occ. eigenvalues --   -0.54987  -0.54458  -0.53917  -0.53116  -0.52598
 Alpha  occ. eigenvalues --   -0.52449  -0.52004  -0.51039  -0.50145  -0.48780
 Alpha  occ. eigenvalues --   -0.48190  -0.47925  -0.47076  -0.46419  -0.45976
 Alpha  occ. eigenvalues --   -0.44572  -0.44384  -0.43803  -0.43307  -0.40573
 Alpha  occ. eigenvalues --   -0.39468  -0.39094  -0.37586  -0.35890  -0.35395
 Alpha  occ. eigenvalues --   -0.34966  -0.34659  -0.29069
 Alpha virt. eigenvalues --   -0.04072  -0.00572   0.01240   0.01757   0.02801
 Alpha virt. eigenvalues --    0.03640   0.04340   0.04675   0.05142   0.05600
 Alpha virt. eigenvalues --    0.06179   0.06566   0.07465   0.07883   0.08191

 Mulliken charges:
               1
     1  C   -0.413345
     2  C   -0.256034
     3  C    0.204923
     4  C    0.203320
     5  C   -0.364023
     6  H    0.258606
     7  H    0.269591
     8  H    0.275244
     9  H    0.259199
    10  P   -0.144752
    11  C   -0.253910
    12  C    0.081337
    13  C    0.000931
    14  C   -0.161397
    15  H    0.269475
    16  C   -0.573112
    17  H    0.278255
    18  H    0.255959
    19  H    0.257236
    20  C   -0.179287
    21  C    0.714409
    22  C    0.748342
    23  C   -0.924663
    24  H    0.320412
    25  C   -0.623423
    26  H    0.296919
    27  H    0.318914
    28  H    0.319319
    29  C   -0.292188
    30  H    0.258798
    31  O   -0.340175
    32  C   -0.630767
    33  C    0.304379
    34  C    0.743518
    35  C   -0.737145
    36  H    0.278199
    37  C   -0.691631
    38  H    0.278832
    39  H    0.289807
    40  H    0.294426
    41  C   -0.315447
    42  H    0.263879
    43  H    0.256597
    44  H    0.261209
    45  N   -0.320168
    46  N   -0.418178
    47  C   -0.284979
    48  H    0.257106
    49  H    0.539316
    50  H    0.566163
 Sum of Mulliken charges =   2.00000

 Dipole moment (field-independent basis, Debye):
    X=              6.7378    Y=            -10.0333    Z=              3.5400  Tot=             12.5935
 Quadrupole moment (field-independent basis, Debye-Ang):
   XX=            -57.4691   YY=           -103.8370   ZZ=           -113.4123
   XY=             -8.9529   XZ=             27.4676   YZ=              3.7051

  Exact polarizability: 510.224  30.545 457.539  -1.892  72.195 382.887
 Approx polarizability: 383.177  14.864 322.943   1.548  54.626 304.956

 ******    1 imaginary frequencies (negative Signs) ******

                      1                      2                      3
                      A                      A                      A
 Frequencies --   -200.8369                23.5140                28.0440
 Red. masses --      7.8985                 4.6213                 4.2947
 Frc consts  --      0.1877                 0.0015                 0.0020
 IR Inten    --    603.3303                 0.6168                 0.5824

                      4                      5                      6
                      A                      A                      A
 Frequencies --     40.9654                51.5985                57.5458
 Red. masses --      5.3501                 5.4639                 4.1375
 Frc consts  --      0.0053                 0.0086                 0.0081
 IR Inten    --      1.9025                 2.3109                 1.8253

                      7                      8                      9
                      A                      A                      A
 Frequencies --     73.5483                83.6640                85.1577
 Red. masses --      4.4086                 4.4760                 4.7540
 Frc consts  --      0.0141                 0.0185                 0.0203
 IR Inten    --      5.4217                10.0405                 0.4984

                     10                     11                     12
                      A                      A                      A
 Frequencies --     99.3398               108.2286               127.4007
 Red. masses --      4.1590                 3.4646                 3.3595
 Frc consts  --      0.0242                 0.0239                 0.0321
 IR Inten    --      7.0281                 7.6833                 4.0965

                     13                     14                     15
                      A                      A                      A
 Frequencies --    134.4475               156.6747               188.5957
 Red. masses --      1.2134                 3.8141                 3.7861
 Frc consts  --      0.0129                 0.0552                 0.0793
 IR Inten    --      1.8876                 3.1752                 1.4616

                     16                     17                     18
                      A                      A                      A
 Frequencies --    189.9491               218.7984               248.7329
 Red. masses --      3.7724                 4.6481                 4.3944
 Frc consts  --      0.0802                 0.1311                 0.1602
 IR Inten    --      9.3283                 1.8967                12.8284

                     19                     20                     21
                      A                      A                      A
 Frequencies --    263.7245               264.8885               289.5964
 Red. masses --      5.5940                 4.6640                 5.5418
 Frc consts  --      0.2292                 0.1928                 0.2738
 IR Inten    --      4.7056                31.0903                11.0192

                     22                     23                     24
                      A                      A                      A
 Frequencies --    308.3335               361.7235               393.0413
 Red. masses --      5.5264                 3.8188                 5.0814
 Frc consts  --      0.3096                 0.2944                 0.4625
 IR Inten    --      1.0438                85.4484                 4.9113

                     25                     26                     27
                      A                      A                      A
 Frequencies --    406.8422               417.0680               420.5194
 Red. masses --      2.8296                 2.9355                 2.9880
 Frc consts  --      0.2759                 0.3008                 0.3113
 IR Inten    --      0.2088                 0.9532                 5.4267

                     28                     29                     30
                      A                      A                      A
 Frequencies --    428.6060               437.3355               464.5842
 Red. masses --      4.3576                 4.5553                 3.4912
 Frc consts  --      0.4716                 0.5133                 0.4440
 IR Inten    --     38.7663                 7.2092                 8.6505

                     31                     32                     33
                      A                      A                      A
 Frequencies --    485.9520               511.6197               541.3680
 Red. masses --      4.7414                 5.4772                 3.2749
 Frc consts  --      0.6597                 0.8447                 0.5655
 IR Inten    --     39.6563               108.2469                14.1282

                     34                     35                     36
                      A                      A                      A
 Frequencies --    550.0771               612.9278               631.4824
 Red. masses --      5.2039                 4.4050                 6.4057
 Frc consts  --      0.9277                 0.9750                 1.5050
 IR Inten    --    168.6689               221.1389                 2.5438

                     37                     38                     39
                      A                      A                      A
 Frequencies --    632.9370               633.9096               652.7036
 Red. masses --      5.7904                 1.8607                 6.3789
 Frc consts  --      1.3667                 0.4405                 1.6011
 IR Inten    --     17.6641               304.8116                 1.4344

                     40                     41                     42
                      A                      A                      A
 Frequencies --    669.2909               701.3387               704.0428
 Red. masses --      6.3343                 2.5860                 4.1300
 Frc consts  --      1.6718                 0.7494                 1.2061
 IR Inten    --      4.4711                13.8727                16.6739

                     43                     44                     45
                      A                      A                      A
 Frequencies --    707.4379               717.9635               739.2945
 Red. masses --      1.9326                 2.0069                 5.2648
 Frc consts  --      0.5699                 0.6095                 1.6954
 IR Inten    --     96.4055                67.5992                36.4388

                     46                     47                     48
                      A                      A                      A
 Frequencies --    756.4462               762.8659               768.5127
 Red. masses --      3.1642                 3.9512                 1.7501
 Frc consts  --      1.0668                 1.3548                 0.6090
 IR Inten    --     49.5069                15.6982                99.4400

                     49                     50                     51
                      A                      A                      A
 Frequencies --    772.9164               776.2946               791.2849
 Red. masses --      1.8835                 1.2750                 2.8723
 Frc consts  --      0.6630                 0.4527                 1.0596
 IR Inten    --     69.5895               243.4100                60.2119

                     52                     53                     54
                      A                      A                      A
 Frequencies --    814.3914               831.6708               875.3483
 Red. masses --      2.0521                 1.3062                 1.2510
 Frc consts  --      0.8019                 0.5323                 0.5648
 IR Inten    --    305.0623                70.4383                 0.1098

                     55                     56                     57
                      A                      A                      A
 Frequencies --    881.8650               899.2397               931.9721
 Red. masses --      1.2439                 1.2633                 1.3892
 Frc consts  --      0.5700                 0.6019                 0.7109
 IR Inten    --      0.2025                 8.8612                 9.3027

                     58                     59                     60
                      A                      A                      A
 Frequencies --    961.3313               967.4238               981.4787
 Red. masses --      1.3415                 1.3373                 4.6111
 Frc consts  --      0.7305                 0.7374                 2.6171
 IR Inten    --      3.1014                 0.8258               145.6138

                     61                     62                     63
                      A                      A                      A
 Frequencies --    994.5176              1004.9210              1015.9769
 Red. masses --      1.2941                 1.3454                 1.3878
 Frc consts  --      0.7541                 0.8005                 0.8440
 IR Inten    --      2.7923                12.2553                 0.3285

                     64                     65                     66
                      A                      A                      A
 Frequencies --   1018.6608              1020.6722              1022.5754
 Red. masses --      1.4474                 5.0584                 6.1677
 Frc consts  --      0.8849                 3.1048                 3.7999
 IR Inten    --      0.1739                 7.5884                 6.5492

                     67                     68                     69
                      A                      A                      A
 Frequencies --   1029.8301              1037.1392              1040.4490
 Red. masses --      1.3295                 1.3845                 3.3046
 Frc consts  --      0.8307                 0.8775                 2.1077
 IR Inten    --      2.1621                 4.9062                 9.2597

                     70                     71                     72
                      A                      A                      A
 Frequencies --   1041.3425              1042.1083              1051.9937
 Red. masses --      1.3464                 1.5018                 5.2753
 Frc consts  --      0.8602                 0.9609                 3.4397
 IR Inten    --      0.1271                 3.5076                87.5933

                     73                     74                     75
                      A                      A                      A
 Frequencies --   1060.0770              1063.3925              1066.5444
 Red. masses --      4.0206                 2.7640                 3.6566
 Frc consts  --      2.6620                 1.8415                 2.4507
 IR Inten    --    163.2281                 6.2262               214.0600

                     76                     77                     78
                      A                      A                      A
 Frequencies --   1070.7956              1116.0337              1122.5013
 Red. masses --      2.5932                 2.1675                 1.6283
 Frc consts  --      1.7519                 1.5906                 1.2088
 IR Inten    --    103.5796                 2.5827                15.3209

                     79                     80                     81
                      A                      A                      A
 Frequencies --   1127.0888              1134.5565              1139.0645
 Red. masses --      1.7112                 1.8982                 2.7583
 Frc consts  --      1.2808                 1.4396                 2.1086
 IR Inten    --      9.6264                 5.9472                34.8897

                     82                     83                     84
                      A                      A                      A
 Frequencies --   1147.4636              1163.9325              1191.6410
 Red. masses --      3.1121                 1.6497                 1.1010
 Frc consts  --      2.4142                 1.3168                 0.9212
 IR Inten    --    124.0471                 5.9536                 1.2553

                     85                     86                     87
                      A                      A                      A
 Frequencies --   1191.7213              1193.4064              1215.2661
 Red. masses --      1.2504                 1.1004                 1.3179
 Frc consts  --      1.0463                 0.9233                 1.1467
 IR Inten    --      2.2363                 0.9403                11.1975

                     88                     89                     90
                      A                      A                      A
 Frequencies --   1224.4381              1232.5126              1244.1014
 Red. masses --      1.1417                 1.1482                 1.1652
 Frc consts  --      1.0085                 1.0277                 1.0625
 IR Inten    --      3.3190                17.0520                62.6626

                     91                     92                     93
                      A                      A                      A
 Frequencies --   1269.2312              1290.1451              1296.1302
 Red. masses --      1.1876                 1.2198                 1.4859
 Frc consts  --      1.1272                 1.1962                 1.4708
 IR Inten    --      9.6059                 1.5748                13.1862

                     94                     95                     96
                      A                      A                      A
 Frequencies --   1307.4775              1318.3416              1333.5111
 Red. masses --      3.3663                 1.6191                 3.8474
 Frc consts  --      3.3905                 1.6579                 4.0310
 IR Inten    --     11.0584                 8.3216                 5.6950

                     97                     98                     99
                      A                      A                      A
 Frequencies --   1342.0220              1365.4507              1376.7242
 Red. masses --      4.8329                 2.1677                 1.5509
 Frc consts  --      5.1284                 2.3813                 1.7319
 IR Inten    --      2.4686                21.7403                 4.9368

                    100                    101                    102
                      A                      A                      A
 Frequencies --   1384.3935              1420.1862              1449.1990
 Red. masses --      1.3985                 1.7701                 1.7018
 Frc consts  --      1.5792                 2.1035                 2.1058
 IR Inten    --     14.5115                29.7308                 3.2112

                    103                    104                    105
                      A                      A                      A
 Frequencies --   1484.3070              1490.6376              1502.6291
 Red. masses --      2.1475                 2.1936                 1.1326
 Frc consts  --      2.7876                 2.8718                 1.5067
 IR Inten    --     36.0006                74.8891                12.0161

                    106                    107                    108
                      A                      A                      A
 Frequencies --   1504.0056              1505.3558              1517.2890
 Red. masses --      1.7966                 1.0473                 1.0571
 Frc consts  --      2.3944                 1.3983                 1.4338
 IR Inten    --    113.2055                20.6796                12.3380

                    109                    110                    111
                      A                      A                      A
 Frequencies --   1540.2409              1543.7846              1548.5792
 Red. masses --      2.0453                 1.9989                 3.6678
 Frc consts  --      2.8588                 2.8068                 5.1823
 IR Inten    --      7.2479                 2.6074                17.2169

                    112                    113                    114
                      A                      A                      A
 Frequencies --   1575.4984              1580.1564              1645.5428
 Red. masses --      2.2060                 2.8126                 2.4510
 Frc consts  --      3.2262                 4.1377                 3.9102
 IR Inten    --     53.2841               110.7371                66.6652

                    115                    116                    117
                      A                      A                      A
 Frequencies --   1653.4767              1656.2541              1671.6645
 Red. masses --      5.3221                 5.4599                 5.4458
 Frc consts  --      8.5729                 8.8244                 8.9662
 IR Inten    --      6.0479                13.9266                 6.8576

                    118                    119                    120
                      A                      A                      A
 Frequencies --   1673.3277              1683.2604              1715.1252
 Red. masses --      5.5398                 3.8333                 5.2961
 Frc consts  --      9.1392                 6.3992                 9.1790
 IR Inten    --      4.2781                96.9053               983.8349

                    121                    122                    123
                      A                      A                      A
 Frequencies --   1723.1439              3082.5621              3173.7242
 Red. masses --      5.2995                 1.0298                 1.1090
 Frc consts  --      9.2710                 5.7654                 6.5815
 IR Inten    --    184.0302                55.5168                24.2013

                    124                    125                    126
                      A                      A                      A
 Frequencies --   3202.6474              3218.0373              3219.5615
 Red. masses --      1.1070                 1.0876                 1.0874
 Frc consts  --      6.6898                 6.6359                 6.6407
 IR Inten    --     14.2674                 0.4682                 0.1719

                    127                    128                    129
                      A                      A                      A
 Frequencies --   3222.2447              3224.1133              3228.2400
 Red. masses --      1.0891                 1.0893                 1.0924
 Frc consts  --      6.6624                 6.6711                 6.7075
 IR Inten    --      0.8207                 0.3203                 3.9962

                    130                    131                    132
                      A                      A                      A
 Frequencies --   3230.7797              3236.0803              3238.1503
 Red. masses --      1.0922                 1.0957                 1.0957
 Frc consts  --      6.7169                 6.7608                 6.7692
 IR Inten    --      2.9704                20.5755                22.6638

                    133                    134                    135
                      A                      A                      A
 Frequencies --   3243.5824              3244.6415              3256.3742
 Red. masses --      1.0994                 1.0993                 1.0906
 Frc consts  --      6.8146                 6.8187                 6.8136
 IR Inten    --     21.9191                22.3703                 0.2881

                    136                    137                    138
                      A                      A                      A
 Frequencies --   3261.0970              3278.9660              3281.1181
 Red. masses --      1.0900                 1.0933                 1.0968
 Frc consts  --      6.8295                 6.9258                 6.9569
 IR Inten    --      0.6183                 2.4243                 0.7080

                    139                    140                    141
                      A                      A                      A
 Frequencies --   3282.5438              3283.3299              3293.8061
 Red. masses --      1.0987                 1.0917                 1.0990
 Frc consts  --      6.9750                 6.9338                 7.0251
 IR Inten    --      1.2735                 3.9043                 8.9820

                    142                    143                    144
                      A                      A                      A
 Frequencies --   3297.5244              3592.7025              3650.7289
 Red. masses --      1.0998                 1.0818                 1.0806
 Frc consts  --      7.0462                 8.2269                 8.4855
 IR Inten    --      6.4380               381.4133               458.9166

 - Thermochemistry -
 -------------------
 Temperature   298.150 Kelvin.  Pressure   1.00000 Atm.
 Atom     1 has atomic number  6 and mass  12.00000

 Molecular mass:   374.15480 amu.
 Principal axes and moments of inertia in atomic units:
                           1         2         3
     Eigenvalues --  8486.192879623.93530**********
           X            0.99999  -0.00431   0.00107
           Y            0.00430   0.99996   0.00771
           Z           -0.00111  -0.00771   0.99997
 This molecule is an asymmetric top.
 Rotational symmetry number  1.
 Warning -- assumption of classical behavior for rotation
           may cause significant error
 Rotational temperatures (Kelvin)      0.01021     0.00900     0.00704
 Rotational constants (GHZ):           0.21267     0.18753     0.14661
    1 imaginary frequencies ignored.
 Zero-point vibrational energy    1096211.4 (Joules/Mol)
                                  262.00080 (Kcal/Mol)
 Warning -- explicit consideration of  34 degrees of freedom as
           vibrations may cause significant error
 Vibrational temperatures:     33.83    40.35    58.94    74.24    82.80
          (Kelvin)            105.82   120.37   122.52   142.93   155.72
                              183.30   193.44   225.42   271.35   273.29
                              314.80   357.87   379.44   381.12   416.66
                              443.62   520.44   565.50   585.36   600.07
                              605.03   616.67   629.23   668.43   699.18
                              736.11   778.91   791.44   881.87   908.56
                              910.66   912.05   939.09   962.96  1009.07
                             1012.96  1017.85  1032.99  1063.68  1088.36
                             1097.59  1105.72  1112.05  1116.91  1138.48
                             1171.73  1196.59  1259.43  1268.81  1293.81
                             1340.90  1383.14  1391.91  1412.13  1430.89
                             1445.86  1461.76  1465.63  1468.52  1471.26
                             1481.70  1492.21  1496.97  1498.26  1499.36
                             1513.58  1525.21  1529.98  1534.52  1540.64
                             1605.72  1615.03  1621.63  1632.37  1638.86
                             1650.94  1674.64  1714.51  1714.62  1717.05
                             1748.50  1761.69  1773.31  1789.98  1826.14
                             1856.23  1864.84  1881.17  1896.80  1918.63
                             1930.87  1964.58  1980.80  1991.83  2043.33
                             2085.07  2135.59  2144.70  2161.95  2163.93
                             2165.87  2183.04  2216.06  2221.16  2228.06
                             2266.79  2273.49  2367.57  2378.98  2382.98
                             2405.15  2407.55  2421.84  2467.68  2479.22
                             4435.12  4566.28  4607.90  4630.04  4632.23
                             4636.09  4638.78  4644.72  4648.37  4656.00
                             4658.98  4666.79  4668.32  4685.20  4691.99
                             4717.70  4720.80  4722.85  4723.98  4739.05
                             4744.40  5169.10  5252.58

 Zero-point correction=                           0.417525 (Hartree/Particle)
 Thermal correction to Energy=                    0.440884
 Thermal correction to Enthalpy=                  0.441829
 Thermal correction to Gibbs Free Energy=         0.363252
 Sum of electronic and zero-point Energies=          -1415.316687
 Sum of electronic and thermal Energies=             -1415.293328
 Sum of electronic and thermal Enthalpies=           -1415.292384
 Sum of electronic and thermal Free Energies=        -1415.370960

                     E (Thermal)             CV                S
                      KCal/Mol        Cal/Mol-Kelvin    Cal/Mol-Kelvin
 Total                  276.659             91.359            165.378
 Electronic               0.000              0.000              0.000
 Translational            0.889              2.981             43.651
 Rotational               0.889              2.981             35.262
 Vibrational            274.882             85.398             86.465
 Vibration     1          0.593              1.985              6.313
 Vibration     2          0.593              1.984              5.963
 Vibration     3          0.594              1.981              5.212
 Vibration     4          0.596              1.977              4.755
 Vibration     5          0.596              1.974              4.540
 Vibration     6          0.599              1.966              4.056
 Vibration     7          0.601              1.960              3.803
 Vibration     8          0.601              1.959              3.768
 Vibration     9          0.604              1.950              3.467
 Vibration    10          0.606              1.943              3.300
 Vibration    11          0.611              1.926              2.985
 Vibration    12          0.613              1.919              2.881
 Vibration    13          0.620              1.895              2.590
 Vibration    14          0.633              1.856              2.242
 Vibration    15          0.633              1.854              2.228
 Vibration    16          0.647              1.812              1.969
 Vibration    17          0.662              1.765              1.740
 Vibration    18          0.670              1.739              1.637
 Vibration    19          0.671              1.737              1.629
 Vibration    20          0.686              1.693              1.476
 Vibration    21          0.698              1.658              1.371
 Vibration    22          0.736              1.551              1.115
 Vibration    23          0.760              1.485              0.989
 Vibration    24          0.772              1.455              0.938
 Vibration    25          0.780              1.433              0.902
 Vibration    26          0.783              1.426              0.890
 Vibration    27          0.790              1.408              0.863
 Vibration    28          0.798              1.389              0.835
 Vibration    29          0.822              1.329              0.753
 Vibration    30          0.842              1.281              0.694
 Vibration    31          0.867              1.224              0.630
 Vibration    32          0.896              1.159              0.562
 Vibration    33          0.905              1.140              0.544
 Vibration    34          0.972              1.004              0.428

 Normal termination of Gaussian 16 at Thu Apr  5 23:30:44 2018.
