                         Program Version 4.0.1.2 - RELEASE -
|  1> !CPCM DLPNO-CCSD(T) Extrapolate(2/3,cc)  RIJCOSX GRIDX5 TightSCF KDIIS
|  2> %cpcm
|  3> smd true
|  4> solvent "Ethanol"
|  5> end
|  6> # Number of processors
|  7> %pal nprocs 24 end
|  8> # Memory per core
|  9> %maxcore 4000
| 10> %scf maxiter 500
| 11>     end
| 12> % mdci
| 13>    # Loose cut-off
| 14>    #  TCutPairs 1e-3
| 15>    #  TCutPNO 1e-6
| 16>    #  TCutMKN 1e-3
| 17>    # Normal cut-off
| 18>      TCutPairs 1e-4
| 19>      TCutPNO 3.33e-7
| 20>      TCutMKN 1e-3
| 21>    # Tight cut-off
| 22>    #TCutPairs 1e-5
| 23>    #TCutPNO 1e-7
| 24>    #TCutMKN 1e-4
| 25>    # Faster/less disk-IO for large jobs
| 26>    #LocalTrafo 3
| 27>    Density None
| 28> end
| 29> % output
| 30>    printlevel mini
| 31>    print[ P_SCFInfo ] 1
| 32>    print[ P_SCFIterInfo ] 1
| 33>    print[ P_OrbEn ] 0
| 34>    print[ P_Cartesian ] 0
| 35> end
| 36> % elprop
| 37>    Dipole False
| 38> end
| 39> * xyz 2 1
| 40>  C                 -1.68528900    2.76413400   -1.83578100
| 41>  C                 -0.67220900    1.99304700   -1.27309500
| 42>  C                 -0.79009500    1.54045100    0.04851900
| 43>  C                 -1.92998500    1.86239100    0.79667400
| 44>  C                 -2.93731600    2.63564800    0.22630200
| 45>  H                 -1.58663800    3.11621500   -2.85854500
| 46>  H                  0.20560300    1.74747800   -1.86486100
| 47>  H                 -2.03476200    1.50825300    1.81737200
| 48>  H                 -3.81737000    2.88662100    0.81168300
| 49>  P                  0.38998300    0.33696500    0.68294600
| 50>  C                 -1.57564000   -1.47053100   -0.17671300
| 51>  C                 -2.13227500   -1.62200600    1.10181200
| 52>  C                 -2.42175000   -1.09807900   -1.22776600
| 53>  C                 -3.47259500   -1.37889700    1.29994900
| 54>  H                 -1.53309600   -1.89683800    1.96250800
| 55>  C                 -3.75671900   -0.85648200   -0.98023700
| 56>  H                 -2.06605500   -0.98881200   -2.24431300
| 57>  H                 -3.96219500   -1.46696000    2.26125000
| 58>  H                 -4.46092000   -0.55172000   -1.74379100
| 59>  C                  2.06943400    0.90326100    0.31835600
| 60>  C                  3.09597200   -0.04836000    0.26165300
| 61>  C                  2.36601900    2.26204300    0.14321800
| 62>  C                  4.40672200    0.35441500    0.02225900
| 63>  H                  2.87923700   -1.10140500    0.41400100
| 64>  C                  3.67849700    2.65772600   -0.09716400
| 65>  H                  1.58095600    3.01100000    0.19577400
| 66>  C                  4.69648300    1.70568800   -0.16140900
| 67>  H                  5.19959700   -0.38669800   -0.02095900
| 68>  H                  3.90614200    3.71103100   -0.23349400
| 69>  H                  5.71919200    2.01924800   -0.35172200
| 70>  C                 -2.81955000    3.08224500   -1.08962600
| 71>  H                 -3.61030900    3.68110800   -1.53281100
| 72>  O                  0.14283300    0.43644300    2.28884400
| 73>  C                 -0.09644500   -1.66624200   -0.39767500
| 74>  C                  0.50462900   -2.81123400    0.27551000
| 75>  C                  0.45263400   -1.41998100   -1.72150500
| 76>  C                  1.60705300   -3.42232000   -0.22268200
| 77>  H                  0.08204800   -3.18961700    1.19824200
| 78>  C                  1.57334500   -2.05685700   -2.14718900
| 79>  H                  0.02575000   -0.66127000   -2.36642100
| 80>  H                  2.07733700   -4.26560100    0.26858500
| 81>  H                  2.03184100   -1.84658500   -3.10612500
| 82>  N                  2.16849900   -3.02232200   -1.39807600
| 83>  C                  0.85049800   -0.46706100    3.16001500
| 84>  H                  0.51399000   -0.22938800    4.16946800
| 85>  H                  0.60609000   -1.50557900    2.92219000
| 86>  H                  1.92995400   -0.30352400    3.08289600
| 87>  N                 -4.23950500   -1.00074800    0.26336300
| 88>  H                 -5.22802100   -0.81791300    0.42748300
| 89>  H                  2.97776700   -3.51157400   -1.76089800
| 90> *
| 91>
| 92>                          ****END OF INPUT****
 Total Charge           Charge          ....    2
 Multiplicity           Mult            ....    1
 Number of Electrons    NEL             ....  196
E(0)                                       ...  -1408.654919607
E(0)                                       ...  -1408.654919607
E(CORR)(strong-pairs)                      ...     -3.743584936
E(CORR)(weak-pairs)                        ...     -0.034301857
E(CORR)(corrected)                         ...     -3.777886793
E(TOT)                                     ...  -1412.432806400
 Multiplicity           Mult            ....    1
 Number of Electrons    NEL             ....  196
 Basis Dimension        Dim             .... 1136
E(0)                                       ...  -1408.944179641
E(CORR)(strong-pairs)                      ...     -4.460007726
E(CORR)(weak-pairs)                        ...     -0.044593897
E(CORR)(corrected)                         ...     -4.504601622
E(TOT)                                     ...  -1413.448781264
E(CCSD(T))                                 ...  -1413.675167284
FINAL SINGLE POINT ENERGY     -1414.235758319246
                             ****ORCA TERMINATED NORMALLY****
TOTAL RUN TIME: 0 days 6 hours 29 minutes 15 seconds 533 msec
