 Gaussian 16, Revision A.03,
 Gaussian 16:  ES64L-G16RevA.03 25-Dec-2016

 ----------------------------------------------------------------------
 # freq=noraman wb97xd/6-31+g(d) scrf=(solvent=ethanol,smd) geom=connec
 tivity
 ----------------------------------------------------------------------

 -------------------
 Title Card Required
 -------------------
 Symbolic Z-matrix:
 Charge =  2 Multiplicity = 1

                         Standard orientation:
 ---------------------------------------------------------------------
 Center     Atomic      Atomic             Coordinates (Angstroms)
 Number     Number       Type             X           Y           Z
 ---------------------------------------------------------------------
      1          6           0       -2.467413   -1.466929   -3.116946
      2          6           0       -1.445806   -0.645337   -2.647236
      3          6           0       -0.857089   -0.910672   -1.404324
      4          6           0       -1.324651   -1.976281   -0.619220
      5          6           0       -2.342250   -2.793549   -1.100316
      6          1           0       -2.918428   -1.262391   -4.083570
      7          1           0       -1.117799    0.198026   -3.247556
      8          1           0       -0.904962   -2.168788    0.365432
      9          1           0       -2.696507   -3.621536   -0.493304
     10         15           0        0.334084    0.246691   -0.709196
     11          6           0        1.905761   -0.594378   -0.317088
     12          6           0        2.990511    0.228527    0.019479
     13          6           0        2.052137   -1.982929   -0.251928
     14          6           0        4.180418   -0.350018    0.408981
     15          1           0        2.922098    1.310124   -0.024736
     16          6           0        3.264318   -2.512508    0.141968
     17          1           0        1.251638   -2.663409   -0.515553
     18          1           0        5.063285    0.213211    0.683822
     19          1           0        3.462628   -3.574777    0.209026
     20          6           0       -1.004912    0.421438    1.797531
     21          6           0       -0.011978   -0.287960    2.487830
     22          6           0       -2.343063    0.080083    2.008620
     23          6           0       -0.348208   -1.325763    3.350032
     24          1           0        1.037033   -0.038592    2.347739
     25          6           0       -2.680507   -0.960538    2.874450
     26          1           0       -3.138305    0.622776    1.508630
     27          1           0        0.436774   -1.866297    3.871679
     28          1           0       -3.726722   -1.213532    3.022396
     29          6           0       -2.911907   -2.541708   -2.348484
     30          1           0       -3.710126   -3.179149   -2.718160
     31          8           0        0.707170    1.339630   -1.824793
     32          6           0       -0.618547    1.514417    0.826116
     33          6           0       -1.666324    2.134978    0.016284
     34          6           0        0.394951    2.468669    1.276570
     35          6           0       -1.531015    3.397279   -0.462314
     36          1           0       -2.537095    1.563366   -0.283298
     37          6           0        0.459789    3.722780    0.766284
     38          1           0        1.129862    2.170739    2.015222
     39          1           0       -2.271449    3.857673   -1.105852
     40          1           0        1.216296    4.437279    1.068539
     41          6           0        1.524548    1.037938   -2.980168
     42          1           0        1.199307    1.719723   -3.766533
     43          1           0        2.572093    1.222517   -2.730750
     44          1           0        1.389997    0.002059   -3.302228
     45          7           0        4.276167   -1.688788    0.459255
     46          1           0        5.162496   -2.101630    0.747399
     47          6           0       -1.686901   -1.671156    3.541650
     48          1           0       -1.951155   -2.484870    4.211288
     49          7           0       -0.464154    4.173606   -0.128814
     50          1           0       -0.414831    5.128038   -0.463049
 ---------------------------------------------------------------------

 SCF Done:  E(RwB97XD) =  -1415.72726188     A.U. after   18 cycles

 The electronic state is 1-A.
 Alpha  occ. eigenvalues --  -77.35183 -19.33756 -14.58808 -14.52787 -10.40565
 Alpha  occ. eigenvalues --  -10.40557 -10.39087 -10.38779 -10.36974 -10.36907
 Alpha  occ. eigenvalues --  -10.36449 -10.36394 -10.36150 -10.34381 -10.33520
 Alpha  occ. eigenvalues --  -10.33193 -10.33153 -10.32371 -10.32213 -10.32142
 Alpha  occ. eigenvalues --  -10.32131 -10.32130 -10.31914 -10.31798 -10.31684
 Alpha  occ. eigenvalues --  -10.31587 -10.31521  -6.77356  -4.92359  -4.92063
 Alpha  occ. eigenvalues --   -4.91805  -1.18128  -1.15456  -1.10286  -0.98975
 Alpha  occ. eigenvalues --   -0.98231  -0.97618  -0.94281  -0.93335  -0.89623
 Alpha  occ. eigenvalues --   -0.88513  -0.86849  -0.86382  -0.86035  -0.83936
 Alpha  occ. eigenvalues --   -0.80596  -0.79782  -0.77865  -0.75813  -0.74035
 Alpha  occ. eigenvalues --   -0.72141  -0.71635  -0.70952  -0.69881  -0.68897
 Alpha  occ. eigenvalues --   -0.68183  -0.64623  -0.62858  -0.62713  -0.61634
 Alpha  occ. eigenvalues --   -0.60311  -0.59842  -0.59536  -0.58443  -0.57699
 Alpha  occ. eigenvalues --   -0.57230  -0.56933  -0.56115  -0.55447  -0.55261
 Alpha  occ. eigenvalues --   -0.54872  -0.54560  -0.54023  -0.53494  -0.52707
 Alpha  occ. eigenvalues --   -0.52318  -0.51446  -0.50650  -0.49954  -0.49361
 Alpha  occ. eigenvalues --   -0.48859  -0.47748  -0.46553  -0.46024  -0.45420
 Alpha  occ. eigenvalues --   -0.44468  -0.43945  -0.43699  -0.43592  -0.42682
 Alpha  occ. eigenvalues --   -0.40885  -0.39540  -0.37353  -0.35877  -0.35386
 Alpha  occ. eigenvalues --   -0.34268  -0.33665  -0.28667
 Alpha virt. eigenvalues --   -0.05307  -0.00193   0.00676   0.02339   0.03219
 Alpha virt. eigenvalues --    0.03804   0.04595   0.04771   0.05606   0.05676
 Alpha virt. eigenvalues --    0.06286   0.06450   0.07435   0.07827   0.08087

 Mulliken charges:
               1
     1  C   -0.264003
     2  C    0.142169
     3  C    0.109206
     4  C   -0.410578
     5  C   -0.694895
     6  H    0.258569
     7  H    0.275760
     8  H    0.288483
     9  H    0.259425
    10  P    0.608637
    11  C   -0.638724
    12  C    0.803277
    13  C    1.052913
    14  C   -0.901523
    15  H    0.321200
    16  C   -0.905622
    17  H    0.318928
    18  H    0.324174
    19  H    0.324317
    20  C    0.449356
    21  C    0.208598
    22  C    0.050582
    23  C   -0.737814
    24  H    0.266548
    25  C   -0.424885
    26  H    0.249425
    27  H    0.251565
    28  H    0.251084
    29  C   -0.223670
    30  H    0.259067
    31  O   -0.454379
    32  C   -0.590143
    33  C    0.253524
    34  C    0.514450
    35  C   -0.847856
    36  H    0.281330
    37  C   -0.622291
    38  H    0.274328
    39  H    0.289072
    40  H    0.290455
    41  C   -0.454546
    42  H    0.263149
    43  H    0.265183
    44  H    0.271271
    45  N   -0.305521
    46  H    0.572235
    47  C   -0.246097
    48  H    0.251090
    49  N   -0.409513
    50  H    0.532691
 Sum of Mulliken charges =   2.00000

 Dipole moment (field-independent basis, Debye):
    X=             16.6899    Y=              0.1592    Z=             -2.2440  Tot=             16.8409
 Quadrupole moment (field-independent basis, Debye-Ang):
   XX=            -53.5966   YY=            -80.1301   ZZ=           -135.8287
   XY=            -20.0354   XZ=             15.3707   YZ=            -13.2775

  Exact polarizability: 467.826  -6.544 537.542  34.995 -28.238 373.175
 Approx polarizability: 350.981   6.484 388.171  30.925 -32.941 286.128

 ******    1 imaginary frequencies (negative Signs) ******

                      1                      2                      3
                      A                      A                      A
 Frequencies --   -241.5079                24.9090                35.6348
 Red. masses --      8.4945                 4.7551                 5.2133
 Frc consts  --      0.2919                 0.0017                 0.0039
 IR Inten    --    814.3060                 3.9098                 7.6530

                      4                      5                      6
                      A                      A                      A
 Frequencies --     39.8893                50.0914                65.0820
 Red. masses --      4.9880                 5.0670                 4.2384
 Frc consts  --      0.0047                 0.0075                 0.0106
 IR Inten    --      1.4935                 2.2424                 5.2766

                      7                      8                      9
                      A                      A                      A
 Frequencies --     74.3618                80.2379                88.7224
 Red. masses --      3.9563                 4.7504                 4.1071
 Frc consts  --      0.0129                 0.0180                 0.0190
 IR Inten    --      0.5868                 5.3987                 1.0702

                     10                     11                     12
                      A                      A                      A
 Frequencies --    100.6659               120.6080               136.4573
 Red. masses --      3.9750                 1.9949                 4.6250
 Frc consts  --      0.0237                 0.0171                 0.0507
 IR Inten    --      1.6916                 2.2216                 2.9896

                     13                     14                     15
                      A                      A                      A
 Frequencies --    159.4049               171.0895               192.8321
 Red. masses --      3.7010                 2.6381                 2.5562
 Frc consts  --      0.0554                 0.0455                 0.0560
 IR Inten    --      2.3222                 0.9323                 6.8256

                     16                     17                     18
                      A                      A                      A
 Frequencies --    194.7745               212.7159               243.1735
 Red. masses --      2.7346                 4.5715                 4.3811
 Frc consts  --      0.0611                 0.1219                 0.1526
 IR Inten    --      5.7948                 4.2540                11.2426

                     19                     20                     21
                      A                      A                      A
 Frequencies --    262.6858               272.0772               296.8723
 Red. masses --      4.6780                 5.0185                 5.5308
 Frc consts  --      0.1902                 0.2189                 0.2872
 IR Inten    --     19.3228                 7.7147                 9.5169

                     22                     23                     24
                      A                      A                      A
 Frequencies --    315.7955               336.2396               405.1054
 Red. masses --      5.4440                 3.8723                 3.3648
 Frc consts  --      0.3199                 0.2579                 0.3253
 IR Inten    --      3.1300               160.0980                 1.9679

                     25                     26                     27
                      A                      A                      A
 Frequencies --    406.8823               416.9771               419.2666
 Red. masses --      3.6926                 3.6970                 2.9989
 Frc consts  --      0.3602                 0.3787                 0.3106
 IR Inten    --     15.4933                 6.9903                 0.7238

                     28                     29                     30
                      A                      A                      A
 Frequencies --    425.3449               434.8895               458.7560
 Red. masses --      3.8505                 4.1653                 3.8663
 Frc consts  --      0.4104                 0.4641                 0.4794
 IR Inten    --      6.5989                 6.5782                18.7353

                     31                     32                     33
                      A                      A                      A
 Frequencies --    492.3031               511.3981               529.9134
 Red. masses --      3.8219                 7.3124                 2.9313
 Frc consts  --      0.5457                 1.1268                 0.4850
 IR Inten    --      4.2006                98.1167                25.6308

                     34                     35                     36
                      A                      A                      A
 Frequencies --    552.6726               583.3118               615.1372
 Red. masses --      4.4397                 1.4434                 6.1369
 Frc consts  --      0.7990                 0.2894                 1.3682
 IR Inten    --     95.5526               506.1946                29.7723

                     37                     38                     39
                      A                      A                      A
 Frequencies --    632.6859               634.2785               657.3875
 Red. masses --      6.4144                 6.4521                 6.2725
 Frc consts  --      1.5128                 1.5294                 1.5971
 IR Inten    --      0.3444                 0.5803                 0.8110

                     40                     41                     42
                      A                      A                      A
 Frequencies --    662.2477               689.9285               704.7234
 Red. masses --      6.5116                 3.0253                 5.8910
 Frc consts  --      1.6826                 0.8484                 1.7238
 IR Inten    --      0.5551                82.2793                23.5180

                     43                     44                     45
                      A                      A                      A
 Frequencies --    718.2060               721.3686               731.7220
 Red. masses --      2.1170                 1.7583                 3.6819
 Frc consts  --      0.6434                 0.5391                 1.1615
 IR Inten    --     89.7602                91.7705                61.2633

                     46                     47                     48
                      A                      A                      A
 Frequencies --    747.8863               752.2815               753.2412
 Red. masses --      5.0832                 2.9063                 1.4368
 Frc consts  --      1.6752                 0.9691                 0.4803
 IR Inten    --     40.9203                51.2454               135.9648

                     49                     50                     51
                      A                      A                      A
 Frequencies --    770.0210               777.3927               799.6976
 Red. masses --      1.7428                 1.6037                 2.5226
 Frc consts  --      0.6088                 0.5710                 0.9505
 IR Inten    --     39.0166               295.7629                80.6081

                     52                     53                     54
                      A                      A                      A
 Frequencies --    814.8772               828.9533               879.6504
 Red. masses --      2.6632                 1.3659                 1.2474
 Frc consts  --      1.0419                 0.5530                 0.5687
 IR Inten    --    223.8643               133.8796                 5.9106

                     55                     56                     57
                      A                      A                      A
 Frequencies --    881.6047               896.6903               917.2261
 Red. masses --      1.2420                 1.2442                 1.3384
 Frc consts  --      0.5688                 0.5894                 0.6634
 IR Inten    --      1.3789                 1.3307                 4.9053

                     58                     59                     60
                      A                      A                      A
 Frequencies --    963.9748               968.5449               970.0647
 Red. masses --      1.3875                 4.1812                 1.4167
 Frc consts  --      0.7597                 2.3109                 0.7855
 IR Inten    --      4.6288               158.4266                 7.6792

                     61                     62                     63
                      A                      A                      A
 Frequencies --    986.5350               999.6857              1017.8370
 Red. masses --      1.2906                 1.3144                 1.3761
 Frc consts  --      0.7400                 0.7739                 0.8400
 IR Inten    --      0.1752                 2.5932                 0.0982

                     64                     65                     66
                      A                      A                      A
 Frequencies --   1018.7617              1022.4666              1024.2795
 Red. masses --      1.3719                 5.8489                 5.6406
 Frc consts  --      0.8389                 3.6026                 3.4867
 IR Inten    --      0.3426                 9.7482                 2.9011

                     67                     68                     69
                      A                      A                      A
 Frequencies --   1026.8700              1027.0754              1036.4545
 Red. masses --      1.3469                 1.3749                 2.2689
 Frc consts  --      0.8368                 0.8545                 1.4361
 IR Inten    --      2.0811                 2.7183                 2.4210

                     70                     71                     72
                      A                      A                      A
 Frequencies --   1037.3423              1041.7234              1042.3061
 Red. masses --      1.8940                 1.5131                 4.0053
 Frc consts  --      1.2008                 0.9674                 2.5637
 IR Inten    --      1.8067                 0.5375                14.7534

                     73                     74                     75
                      A                      A                      A
 Frequencies --   1061.4447              1064.4114              1069.7341
 Red. masses --      3.9052                 2.1647                 4.0266
 Frc consts  --      2.5923                 1.4450                 2.7148
 IR Inten    --    191.8195                60.2841               275.7050

                     76                     77                     78
                      A                      A                      A
 Frequencies --   1082.4985              1104.5524              1126.5982
 Red. masses --      2.3210                 2.8612                 2.0801
 Frc consts  --      1.6025                 2.0567                 1.5555
 IR Inten    --     41.0506                21.4590                 3.3957

                     79                     80                     81
                      A                      A                      A
 Frequencies --   1129.5854              1132.9027              1142.7438
 Red. masses --      1.6562                 1.5636                 2.7597
 Frc consts  --      1.2451                 1.1824                 2.1233
 IR Inten    --      9.9082                 9.9705                32.4594

                     82                     83                     84
                      A                      A                      A
 Frequencies --   1147.8864              1154.4630              1192.0669
 Red. masses --      3.0830                 1.6345                 1.2442
 Frc consts  --      2.3934                 1.2835                 1.0417
 IR Inten    --     66.5617                 3.0947                 2.3157

                     85                     86                     87
                      A                      A                      A
 Frequencies --   1193.4874              1194.1111              1228.3616
 Red. masses --      1.0983                 1.1037                 1.1723
 Frc consts  --      0.9217                 0.9272                 1.0422
 IR Inten    --      0.5820                 0.1780                21.2544

                     88                     89                     90
                      A                      A                      A
 Frequencies --   1230.1235              1231.7503              1252.2290
 Red. masses --      1.2907                 1.1701                 1.1606
 Frc consts  --      1.1507                 1.0459                 1.0723
 IR Inten    --     22.4322                 6.1676                26.0207

                     91                     92                     93
                      A                      A                      A
 Frequencies --   1257.1001              1283.5968              1286.9041
 Red. masses --      1.1834                 1.1783                 3.0204
 Frc consts  --      1.1019                 1.1439                 2.9472
 IR Inten    --     59.4406                 3.2226                14.0103

                     94                     95                     96
                      A                      A                      A
 Frequencies --   1297.2925              1306.7614              1336.6133
 Red. masses --      1.9099                 2.0564                 4.0504
 Frc consts  --      1.8939                 2.0689                 4.2635
 IR Inten    --     44.3659                14.1415                 3.4289

                     97                     98                     99
                      A                      A                      A
 Frequencies --   1351.1204              1353.6660              1382.7506
 Red. masses --      1.6278                 3.8208                 1.4539
 Frc consts  --      1.7508                 4.1251                 1.6379
 IR Inten    --      6.9301                 9.0864                 5.6307

                    100                    101                    102
                      A                      A                      A
 Frequencies --   1388.2487              1401.5263              1438.4288
 Red. masses --      1.4442                 1.8036                 1.6432
 Frc consts  --      1.6398                 2.0873                 2.0031
 IR Inten    --      1.7006                52.1991                 8.8583

                    103                    104                    105
                      A                      A                      A
 Frequencies --   1487.8554              1499.7791              1499.9945
 Red. masses --      2.1870                 1.8494                 2.3072
 Frc consts  --      2.8525                 2.4510                 3.0586
 IR Inten    --     28.1976               171.9620                 5.1577

                    106                    107                    108
                      A                      A                      A
 Frequencies --   1506.3920              1512.8475              1533.3118
 Red. masses --      1.0931                 1.0470                 1.0699
 Frc consts  --      1.4615                 1.4118                 1.4820
 IR Inten    --      3.6219                16.7910                19.5486

                    109                    110                    111
                      A                      A                      A
 Frequencies --   1542.0831              1548.6989              1552.8103
 Red. masses --      1.9984                 2.0535                 4.6086
 Frc consts  --      2.8000                 2.9018                 6.5473
 IR Inten    --      9.1683                81.9229                91.8729

                    112                    113                    114
                      A                      A                      A
 Frequencies --   1560.4584              1561.8272              1641.1441
 Red. masses --      2.2340                 2.1948                 2.6948
 Frc consts  --      3.2050                 3.1544                 4.2763
 IR Inten    --     71.5370                 6.9188                61.4845

                    115                    116                    117
                      A                      A                      A
 Frequencies --   1655.2008              1667.8676              1672.2295
 Red. masses --      5.3192                 5.5170                 5.4940
 Frc consts  --      8.5862                 9.0422                 9.0517
 IR Inten    --      2.6541                10.1458                 4.2729

                    118                    119                    120
                      A                      A                      A
 Frequencies --   1680.7508              1687.6281              1702.5542
 Red. masses --      3.3366                 5.6251                 5.0836
 Frc consts  --      5.5534                 9.4392                 8.6821
 IR Inten    --     63.0017                 2.3363              1051.4712

                    121                    122                    123
                      A                      A                      A
 Frequencies --   1722.6699              3092.1531              3187.7255
 Red. masses --      5.3421                 1.0289                 1.1100
 Frc consts  --      9.3404                 5.7960                 6.6454
 IR Inten    --    398.7797                47.6704                18.0156

                    124                    125                    126
                      A                      A                      A
 Frequencies --   3209.0682              3216.1361              3219.3882
 Red. masses --      1.1085                 1.0868                 1.0874
 Frc consts  --      6.7260                 6.6230                 6.6401
 IR Inten    --     12.1072                 1.0900                 0.1325

                    127                    128                    129
                      A                      A                      A
 Frequencies --   3222.9653              3224.9735              3231.1460
 Red. masses --      1.0895                 1.0896                 1.0934
 Frc consts  --      6.6677                 6.6765                 6.7261
 IR Inten    --      5.0826                 2.1884                22.9935

                    130                    131                    132
                      A                      A                      A
 Frequencies --   3231.9707              3239.4750              3239.6283
 Red. masses --      1.0926                 1.0973                 1.0958
 Frc consts  --      6.7242                 6.7843                 6.7760
 IR Inten    --      6.5404                13.5628                19.5602

                    133                    134                    135
                      A                      A                      A
 Frequencies --   3245.0509              3249.0349              3258.6377
 Red. masses --      1.0985                 1.0941                 1.0894
 Frc consts  --      6.8156                 6.8049                 6.8159
 IR Inten    --     16.2046                 6.3150                 0.7044

                    136                    137                    138
                      A                      A                      A
 Frequencies --   3259.3809              3262.8540              3275.8458
 Red. masses --      1.0895                 1.0935                 1.0979
 Frc consts  --      6.8194                 6.8589                 6.9419
 IR Inten    --      1.6955                 6.3713                 0.8504

                    139                    140                    141
                      A                      A                      A
 Frequencies --   3277.3136              3277.6301              3293.6159
 Red. masses --      1.0996                 1.0925                 1.0981
 Frc consts  --      6.9585                 6.9152                 7.0185
 IR Inten    --      3.5613                12.7831                17.6064

                    142                    143                    144
                      A                      A                      A
 Frequencies --   3294.7055              3584.8148              3654.1573
 Red. masses --      1.1002                 1.0817                 1.0805
 Frc consts  --      7.0364                 8.1903                 8.5008
 IR Inten    --      0.8782               476.3204               479.7078

 - Thermochemistry -
 -------------------
 Temperature   298.150 Kelvin.  Pressure   1.00000 Atm.
 Atom     1 has atomic number  6 and mass  12.00000

 Molecular mass:   374.15480 amu.
 Principal axes and moments of inertia in atomic units:
                           1         2         3
     Eigenvalues --  9236.170729874.53944**********
           X            0.99826   0.05783   0.01132
           Y           -0.05677   0.99528  -0.07876
           Z           -0.01582   0.07798   0.99683
 This molecule is an asymmetric top.
 Rotational symmetry number  1.
 Warning -- assumption of classical behavior for rotation
           may cause significant error
 Rotational temperatures (Kelvin)      0.00938     0.00877     0.00822
 Rotational constants (GHZ):           0.19540     0.18277     0.17130
    1 imaginary frequencies ignored.
 Zero-point vibrational energy    1095713.6 (Joules/Mol)
                                  261.88183 (Kcal/Mol)
 Warning -- explicit consideration of  35 degrees of freedom as
           vibrations may cause significant error
 Vibrational temperatures:     35.84    51.27    57.39    72.07    93.64
          (Kelvin)            106.99   115.44   127.65   144.84   173.53
                              196.33   229.35   246.16   277.44   280.24
                              306.05   349.87   377.95   391.46   427.13
                              454.36   483.77   582.86   585.41   599.94
                              603.23   611.98   625.71   660.05   708.31
                              735.79   762.43   795.17   839.26   885.05
                              910.29   912.59   945.83   952.83   992.65
                             1013.94  1033.34  1037.89  1052.78  1076.04
                             1082.37  1083.75  1107.89  1118.49  1150.59
                             1172.43  1192.68  1265.62  1268.43  1290.14
                             1319.68  1386.94  1393.52  1395.71  1419.40
                             1438.32  1464.44  1465.77  1471.10  1473.71
                             1477.44  1477.73  1491.23  1492.50  1498.81
                             1499.65  1527.18  1531.45  1539.11  1557.47
                             1589.20  1620.92  1625.22  1629.99  1644.15
                             1651.55  1661.01  1715.12  1717.16  1718.06
                             1767.34  1769.87  1772.21  1801.68  1808.69
                             1846.81  1851.57  1866.51  1880.14  1923.09
                             1943.96  1947.62  1989.47  1997.38  2016.48
                             2069.58  2140.69  2157.85  2158.16  2167.36
                             2176.65  2206.09  2218.71  2228.23  2234.15
                             2245.15  2247.12  2361.24  2381.46  2399.69
                             2405.97  2418.23  2428.12  2449.60  2478.54
                             4448.92  4586.43  4617.13  4627.30  4631.98
                             4637.13  4640.02  4648.90  4650.09  4660.88
                             4661.10  4668.90  4674.64  4688.45  4689.52
                             4694.52  4713.21  4715.32  4715.78  4738.78
                             4740.35  5157.75  5257.52

 Zero-point correction=                           0.417335 (Hartree/Particle)
 Thermal correction to Energy=                    0.440604
 Thermal correction to Enthalpy=                  0.441549
 Thermal correction to Gibbs Free Energy=         0.363690
 Sum of electronic and zero-point Energies=          -1415.309927
 Sum of electronic and thermal Energies=             -1415.286657
 Sum of electronic and thermal Enthalpies=           -1415.285713
 Sum of electronic and thermal Free Energies=        -1415.363572

                     E (Thermal)             CV                S
                      KCal/Mol        Cal/Mol-Kelvin    Cal/Mol-Kelvin
 Total                  276.483             91.546            163.867
 Electronic               0.000              0.000              0.000
 Translational            0.889              2.981             43.651
 Rotational               0.889              2.981             35.217
 Vibrational            274.706             85.584             84.998
 Vibration     1          0.593              1.985              6.198
 Vibration     2          0.594              1.982              5.488
 Vibration     3          0.594              1.981              5.265
 Vibration     4          0.595              1.978              4.814
 Vibration     5          0.597              1.971              4.297
 Vibration     6          0.599              1.966              4.034
 Vibration     7          0.600              1.963              3.885
 Vibration     8          0.602              1.957              3.688
 Vibration     9          0.604              1.949              3.441
 Vibration    10          0.609              1.932              3.091
 Vibration    11          0.614              1.917              2.853
 Vibration    12          0.621              1.892              2.557
 Vibration    13          0.626              1.878              2.423
 Vibration    14          0.635              1.850              2.200
 Vibration    15          0.635              1.847              2.182
 Vibration    16          0.644              1.822              2.020
 Vibration    17          0.659              1.774              1.780
 Vibration    18          0.670              1.741              1.644
 Vibration    19          0.675              1.725              1.583
 Vibration    20          0.691              1.680              1.434
 Vibration    21          0.703              1.643              1.332
 Vibration    22          0.717              1.603              1.230
 Vibration    23          0.770              1.459              0.944
 Vibration    24          0.772              1.455              0.938
 Vibration    25          0.780              1.433              0.902
 Vibration    26          0.782              1.428              0.894
 Vibration    27          0.787              1.415              0.874
 Vibration    28          0.795              1.394              0.843
 Vibration    29          0.817              1.342              0.770
 Vibration    30          0.848              1.267              0.678
 Vibration    31          0.867              1.225              0.630
 Vibration    32          0.885              1.184              0.587
 Vibration    33          0.908              1.134              0.539
 Vibration    34          0.940              1.067              0.479
 Vibration    35          0.975              1.000              0.424

 Normal termination of Gaussian 16 at Wed Apr  4 19:26:05 2018.
